#-----------------------------------------------------------------------------------           
# NANOPOLY - POLYMER NANOCOMPOSITE STRUCTURAL DATA FILE                                        
#-----------------------------------------------------------------------------------           
# FILENAME:  test_structure.in                                                                  
# DATE: 2021-10-02                                                                                
#-----------------------------------------------------------------------------------           
                                                                                               
500 atoms                                                             
499 bonds                                                             
                                                                                               
2 atom types                                      
1 bond types                                            
                                                                                    
0.0000 15.0000 xlo xhi            
0.0000 15.0000 ylo yhi            
0.0000 15.0000 zlo zhi            
                                                                                    
                                                                                    
# Types have been converted numerically as follows:                                 
# 1 a
# 2 b
                                                                                    
Masses                                                                              
                                                                                    
1	1.0
2	0.5

Atoms                                                                               

	1	1	1	2.10051		0.23230		10.95145	
	2	1	1	1.05356		0.60766		10.80100	
	3	1	1	1.02190		1.29474		11.68789	
	4	1	1	0.47667		0.68013		12.45250	
	5	1	1	0.75554		14.63740		12.76009	
	6	1	1	1.56307		14.81806		12.00186	
	7	1	1	2.12100		0.76516		12.22847	
	8	1	1	1.94584		0.96034		13.31974	
	9	1	1	2.90476		0.52071		13.70297	
	10	1	1	3.65787		0.52894		12.87086	
	11	1	1	3.68057		1.03811		11.87092	
	12	1	1	3.42843		0.95252		10.78063	
	13	1	1	3.07360		1.92102		11.22307	
	14	1	1	3.78212		2.70677		10.84858	
	15	1	1	4.18953		1.87250		10.21797	
	16	1	1	4.99895		1.70349		10.97686	
	17	1	1	5.84439		2.32112		10.57263	
	18	1	1	6.20889		3.08892		11.30561	
	19	1	1	7.29762		3.32562		11.44084	
	20	1	1	7.11809		4.15655		10.70806	
	21	1	1	6.76121		4.79860		9.85949	
	22	1	1	5.86692		4.57570		10.49997	
	23	1	1	5.39708		5.59496		10.50078	
	24	1	1	4.44752		5.30750		11.02551	
	25	1	1	4.17335		4.55542		10.23883	
	26	1	1	4.82952		4.80580		9.36339	
	27	1	1	4.91535		3.89917		8.70740	
	28	1	1	3.87466		3.67994		9.06594	
	29	1	1	4.52060		3.23056		9.86623	
	30	1	1	5.03176		3.07757		10.85363	
	31	1	1	4.57204		3.76417		11.61316	
	32	1	1	4.38653		3.19983		12.56540	
	33	1	1	5.06438		3.35965		13.44552	
	34	1	1	4.65103		2.35808		13.73814	
	35	1	1	3.55706		2.12021		13.65886	
	36	1	1	2.46750		1.92904		13.84852	
	37	1	1	2.68300		2.71459		13.07643	
	38	1	1	1.64327		2.48712		12.72027	
	39	1	1	0.70183		2.14342		13.22545	
	40	1	1	0.24581		2.93694		13.87508	
	41	1	1	14.53861		3.70041		14.29536	
	42	1	1	13.78333		4.16294		13.60597	
	43	1	1	12.75537		4.40463		13.22580	
	44	1	1	13.21685		4.88307		12.32148	
	45	1	1	14.10154		4.19753		12.40520	
	46	1	1	14.57786		3.18598		12.30760	
	47	1	1	13.67665		2.68793		12.75413	
	48	1	1	14.08549		1.69161		13.07013	
	49	1	1	13.47234		1.49598		13.98960	
	50	1	1	13.58913		2.39868		14.64620	
	51	1	1	12.86783		1.82131		0.28340	
	52	1	1	11.74565		1.80714		0.29609	
	53	1	1	10.68685		2.04863		0.01279	
	54	1	1	10.55404		2.22885		13.91300	
	55	1	1	10.54798		1.38798		13.16966	
	56	1	1	11.14581		0.58424		12.66346	
	57	1	1	11.68533		1.01651		11.77932	
	58	1	1	11.80388		2.07682		11.43098	
	59	1	1	12.49399		1.91169		10.56142	
	60	1	1	13.36706		2.09178		11.24330	
	61	1	1	14.45029		1.82212		11.35965	
	62	1	1	14.52925		0.72645		11.12961	
	63	1	1	14.81304		0.40406		10.09271	
	64	1	1	0.10971		14.40789		9.66930	
	65	1	1	0.78014		13.64599		9.19006	
	66	1	1	1.40986		13.67494		10.11865	
	67	1	1	1.89084		12.69241		10.36955	
	68	1	1	1.97674		13.01629		9.29840	
	69	1	1	1.00143		12.46309		9.24961	
	70	1	1	1.54314		11.76963		8.55296	
	71	1	1	1.53440		12.08404		7.47560	
	72	1	1	0.81919		11.91741		6.62686	
	73	1	1	1.39123		11.57772		5.72297	
	74	1	1	0.40585		11.14253		5.40789	
	75	1	1	14.90440		11.55014		4.49025	
	76	1	1	0.83727		12.14528		4.30260	
	77	1	1	1.22801		13.12839		3.92782	
	78	1	1	0.92139		14.12105		4.35240	
	79	1	1	1.36524		13.99804		5.37588	
	80	1	1	0.42664		13.42264		5.59406	
	81	1	1	0.00191		14.42432		5.86952	
	82	1	1	14.72826		0.50598		5.99103	
	83	1	1	14.89969		1.47748		6.52625	
	84	1	1	0.46559		1.86580		5.63821	
	85	1	1	0.87382		0.82161		5.68997	
	86	1	1	1.74265		1.52716		5.60647	
	87	1	1	2.10844		1.67400		4.55562	
	88	1	1	2.99805		1.58071		3.87772	
	89	1	1	3.88646		0.92375		4.07465	
	90	1	1	3.72158		14.87340		4.43413	
	91	1	1	4.45096		14.09186		4.09230	
	92	1	1	5.54163		13.82743		4.07999	
	93	1	1	6.19225		12.91453		4.13442	
	94	1	1	6.10420		11.88828		3.68867	
	95	1	1	6.48227		11.69402		4.72741	
	96	1	1	5.43452		11.35357		4.51303	
	97	1	1	4.76994		12.12318		4.98809	
	98	1	1	4.71375		11.08411		5.40860	
	99	1	1	4.81988		10.12643		4.83309	
	100	1	1	4.35210		9.29987		5.43112	
	101	1	1	3.54644		9.92620		4.96393	
	102	1	1	3.02324		9.12240		5.54686	
	103	1	1	2.16245		8.97310		6.25141	
	104	1	1	2.88778		9.09358		7.09937	
	105	1	1	3.39276		9.37325		8.06188	
	106	1	1	3.43216		8.54144		8.81434	
	107	1	1	4.52071		8.31898		8.65558	
	108	1	1	5.01459		8.62264		7.69458	
	109	1	1	5.45668		9.63727		7.50821	
	110	1	1	4.67314		10.22614		6.96146	
	111	1	1	4.28087		11.27415		7.04782	
	112	1	1	3.89568		12.18384		7.58048	
	113	1	1	3.93265		13.07205		8.26558	
	114	1	1	2.84635		13.30876		8.41908	
	115	1	1	3.18996		12.38696		8.95933	
	116	1	1	3.45227		11.66599		9.77850	
	117	1	1	3.47601		10.62503		10.19741	
	118	1	1	3.01596		9.61470		10.03237	
	119	1	1	4.00306		9.54510		9.50281	
	120	1	1	4.52228		10.01660		8.62659	
	121	1	1	4.90220		10.27341		9.65098	
	122	1	1	5.34854		11.19590		9.19334	
	123	1	1	5.55237		11.14829		10.29599	
	124	1	1	6.45847		11.76038		10.54893	
	125	1	1	6.84242		11.15769		11.41437	
	126	1	1	7.32048		12.05214		11.89506	
	127	1	1	8.22482		12.29353		11.27576	
	128	1	1	7.86252		11.36507		10.75968	
	129	1	1	7.19948		10.62377		10.23957	
	130	1	1	8.25844		10.30407		10.04968	
	131	1	1	8.69833		10.43917		11.07334	
	132	1	1	8.13437		11.00690		11.86029	
	133	1	1	9.22241		11.22862		11.69698	
	134	1	1	9.88052		10.84513		12.52128	
	135	1	1	10.16953		11.66944		13.22600	
	136	1	1	9.13333		12.03208		12.99272	
	137	1	1	8.83419		12.30293		14.04001	
	138	1	1	9.08109		13.19873		14.66948	
	139	1	1	7.99753		12.93295		14.54739	
	140	1	1	7.58454		11.89745		14.67707	
	141	1	1	7.01382		11.33997		13.88768	
	142	1	1	7.68832		10.48251		13.62416	
	143	1	1	6.83347		10.34279		12.91047	
	144	1	1	7.47883		9.45665		12.66982	
	145	1	1	7.18056		9.71800		11.61988	
	146	1	1	6.87767		8.92629		10.88427	
	147	1	1	7.23105		8.34918		11.77966	
	148	1	1	7.13012		7.51313		11.03772	
	149	1	1	8.16640		7.72843		10.66434	
	150	1	1	8.69900		7.73491		9.67644	
	151	1	1	9.17721		8.73238		9.86620	
	152	1	1	10.16134		8.98636		9.39014	
	153	1	1	9.24374		9.10653		8.75516	
	154	1	1	9.20701		10.22287		8.86504	
	155	1	1	9.62450		10.75860		7.97154	
	156	1	1	8.69158		10.36765		7.48526	
	157	1	1	8.75738		9.34588		7.02559	
	158	1	1	7.66728		9.26496		6.77107	
	159	1	1	8.20888		9.97079		6.08688	
	160	1	1	8.91998		10.21577		5.25383	
	161	1	1	8.81126		10.08683		4.14423	
	162	1	1	9.30016		9.64734		3.23458	
	163	1	1	8.49524		8.86657		3.18826	
	164	1	1	7.77276		8.52249		2.40131	
	165	1	1	8.08389		7.77149		3.17517	
	166	1	1	7.84696		8.18387		4.19176	
	167	1	1	7.92740		9.30332		4.19594	
	168	1	1	7.70243		10.15784		4.88791	
	169	1	1	6.84782		9.54145		4.50146	
	170	1	1	6.86916		10.51887		3.95024	
	171	1	1	7.46053		10.51549		2.99634	
	172	1	1	7.82878		10.93278		2.02171	
	173	1	1	8.85232		10.87416		2.47842	
	174	1	1	8.72702		11.66446		3.26542	
	175	1	1	9.54023		12.27111		2.78550	
	176	1	1	9.88142		11.95593		3.80721	
	177	1	1	9.94361		11.89440		4.92614	
	178	1	1	9.00639		12.41300		4.59098	
	179	1	1	9.07752		13.45072		4.16939	
	180	1	1	9.02026		14.52986		3.86637	
	181	1	1	9.21622		0.00779		4.86278	
	182	1	1	9.57967		0.08522		5.92182	
	183	1	1	9.88037		1.13991		5.68340	
	184	1	1	10.28946		1.81987		4.88971	
	185	1	1	10.45169		0.97265		4.17170	
	186	1	1	11.39977		1.56517		4.27023	
	187	1	1	12.21258		2.30684		4.04903	
	188	1	1	12.63712		1.62248		3.26732	
	189	1	1	13.04556		1.53807		2.22535	
	190	1	1	12.52651		0.60748		2.57784	
	191	1	1	11.94432		1.28466		1.89804	
	192	1	1	10.95613		1.09801		2.39633	
	193	1	1	10.74150		0.03537		2.10586	
	194	1	1	10.98691		14.63091		3.12362	
	195	1	1	11.75941		13.85653		2.87219	
	196	1	1	11.93340		14.67077		2.11960	
	197	1	1	12.74757		14.41898		1.38927	
	198	1	1	13.05874		13.38032		1.09944	
	199	1	1	13.86368		12.67803		0.75519	
	200	1	1	12.88650		12.25764		0.39738	
	201	1	1	11.90761		11.71043		0.35263	
	202	1	1	11.63378		12.20505		1.32217	
	203	1	1	11.50520		13.31478		1.21444	
	204	1	1	10.44733		13.05180		1.48166	
	205	1	1	9.45423		12.75831		1.04893	
	206	1	1	8.34964		12.72906		1.24560	
	207	1	1	7.53463		13.49794		1.18068	
	208	1	1	6.95181		13.60974		0.22806	
	209	1	1	6.84159		14.60392		0.73708	
	210	1	1	6.66733		0.17819		14.78866	
	211	1	1	6.66281		0.38130		13.68486	
	212	1	1	7.54096		0.78358		13.11331	
	213	1	1	7.25853		1.86848		13.05970	
	214	1	1	8.15108		2.45981		13.39636	
	215	1	1	7.99630		1.54243		14.02414	
	216	1	1	6.91791		1.40367		14.30248	
	217	1	1	6.28713		1.97538		0.03385	
	218	1	1	6.75536		2.60233		14.22928	
	219	1	1	7.36563		2.54366		0.16937	
	220	1	1	7.71990		2.01433		1.09346	
	221	1	1	8.31432		2.92101		0.80320	
	222	1	1	9.11530		3.65704		0.52693	
	223	1	1	10.02375		3.54181		1.17585	
	224	1	1	9.89731		3.90304		2.23092	
	225	1	1	10.59571		4.30234		3.01351	
	226	1	1	10.36274		4.20143		4.10676	
	227	1	1	10.46721		3.27373		4.72974	
	228	1	1	11.29420		3.00540		4.02000	
	229	1	1	12.02874		3.64274		3.45974	
	230	1	1	11.77760		4.03987		4.47899	
	231	1	1	11.57195		3.83217		5.56260	
	232	1	1	11.03038		4.13528		6.49774	
	233	1	1	10.96900		5.25128		6.39571	
	234	1	1	10.75942		6.21556		6.93041	
	235	1	1	11.86527		6.03693		6.86087	
	236	1	1	11.85554		6.17540		5.74714	
	237	1	1	11.26788		6.97975		6.26418	
	238	1	1	12.03187		7.38544		6.97929	
	239	1	1	13.01854		7.13976		7.45446	
	240	1	1	13.10731		7.94367		6.67632	
	241	1	1	13.97903		8.31749		7.27633	
	242	1	1	13.92075		8.73146		8.31790	
	243	1	1	13.15863		7.93491		8.52843	
	244	1	1	12.42370		8.64689		8.98951	
	245	1	1	11.62562		9.06660		9.65776	
	246	1	1	11.09436		9.23480		8.68353	
	247	1	1	11.15228		10.35366		8.61674	
	248	1	1	11.29704		9.89331		7.60344	
	249	1	1	10.32180		9.63092		7.11384	
	250	1	1	9.77569		10.32115		6.41743	
	251	1	1	10.76868		10.84417		6.40936	
	252	1	1	10.79799		11.91924		6.73031	
	253	1	1	10.99005		11.37409		7.69238	
	254	1	1	12.05113		11.41834		7.32934	
	255	1	1	12.85514		12.10690		6.95639	
	256	1	1	13.73480		12.03296		7.64948	
	257	1	1	14.02569		11.85201		6.58070	
	258	1	1	14.58583		12.64698		6.02040	
	259	1	1	13.83700		12.73821		5.18939	
	260	1	1	13.47075		12.50695		4.15400	
	261	1	1	13.83857		11.47022		3.93144	
	262	1	1	14.15680		10.43805		3.62645	
	263	1	1	0.23804		10.54119		3.34374	
	264	1	1	0.17203		10.37219		2.23616	
	265	1	1	0.40231		9.29057		2.04456	
	266	1	1	0.03926		8.29794		2.42209	
	267	1	1	14.65466		8.15028		3.46608	
	268	1	1	14.29382		7.09305		3.35784	
	269	1	1	14.00033		6.03607		3.59511	
	270	1	1	14.01742		4.92663		3.76394	
	271	1	1	13.15683		5.17905		3.08917	
	272	1	1	12.36671		5.14839		2.29266	
	273	1	1	11.56914		4.35888		2.30714	
	274	1	1	11.17373		3.60171		1.57914	
	275	1	1	11.87054		3.60962		0.69935	
	276	1	1	11.94852		3.66655		14.58117	
	277	1	1	11.12820		3.62981		13.81607	
	278	1	1	10.44024		4.02597		13.02272	
	279	1	1	9.92396		3.24107		12.40869	
	280	1	1	9.31193		3.80483		11.65554	
	281	1	1	10.38554		3.98638		11.38343	
	282	1	1	10.85595		4.87266		11.88630	
	283	1	1	10.69389		5.57296		12.74825	
	284	1	1	11.56407		5.91050		13.37155	
	285	1	1	11.05052		6.07586		14.35570	
	286	1	1	11.79702		5.40523		14.85835	
	287	1	1	12.70569		4.74675		14.83934	
	288	1	1	13.52578		3.99472		14.98614	
	289	1	1	13.30224		3.48101		0.95866	
	290	1	1	13.95662		2.57480		1.05980	
	291	1	1	0.03807		2.53986		0.76166	
	292	1	1	0.79108		3.02869		1.43522	
	293	1	1	1.07229		1.97340		1.69390	
	294	1	1	1.87261		2.54020		2.23968	
	295	1	1	2.32742		2.66949		3.25756	
	296	1	1	3.11923		2.37129		2.52016	
	297	1	1	3.56765		2.74655		3.47816	
	298	1	1	4.15745		2.21709		4.27280	
	299	1	1	3.40248		2.93286		4.69392	
	300	1	1	2.28427		3.00586		4.75650	
	301	1	1	1.19732		2.76357		4.89607	
	302	1	1	0.66105		3.70504		5.18883	
	303	1	1	0.16827		4.63598		4.80132	
	304	1	1	1.14168		4.42485		4.28407	
	305	1	1	1.02870		5.53020		4.44247	
	306	1	1	1.67891		5.42446		5.35116	
	307	1	1	1.84230		4.52189		5.99793	
	308	1	1	0.88175		5.04350		6.25272	
	309	1	1	1.10685		6.05547		6.68269	
	310	1	1	1.55585		6.99297		7.10595	
	311	1	1	0.56506		7.51407		7.18614	
	312	1	1	1.34080		8.29564		6.96930	
	313	1	1	1.14890		9.30111		7.42959	
	314	1	1	1.96850		9.99900		7.11202	
	315	1	1	1.96039		11.09911		6.88988	
	316	1	1	2.85602		11.57889		6.41312	
	317	1	1	3.27780		10.55079		6.57046	
	318	1	1	3.16329		10.84317		7.64798	
	319	1	1	2.58669		10.14034		8.30616	
	320	1	1	2.25157		9.54016		9.19336	
	321	1	1	2.21033		9.01139		8.20425	
	322	1	1	1.98877		7.91241		8.25723	
	323	1	1	2.24479		7.97507		9.34818	
	324	1	1	2.78821		7.14694		9.87595	
	325	1	1	3.27034		6.61577		9.01279	
	326	1	1	4.32994		6.98560		9.02358	
	327	1	1	4.93559		6.20726		9.55933	
	328	1	1	4.62072		6.67910		10.52777	
	329	1	1	3.84101		5.98992		10.10737	
	330	1	1	3.10601		5.54888		9.38287	
	331	1	1	2.07232		5.36434		8.98654	
	332	1	1	1.23423		4.90989		9.57876	
	333	1	1	0.96076		5.93423		9.94698	
	334	1	1	0.34352		5.77965		10.87151	
	335	1	1	1.16502		5.75153		11.63571	
	336	1	1	1.20623		6.86772		11.52591	
	337	1	1	2.21328		6.96717		12.01131	
	338	1	1	3.04870		6.29354		11.68277	
	339	1	1	3.37120		7.25626		12.16112	
	340	1	1	3.63266		8.18480		11.58746	
	341	1	1	4.30178		8.95722		12.05145	
	342	1	1	4.45867		8.58442		13.09837	
	343	1	1	5.34697		7.90545		13.00054	
	344	1	1	4.65286		7.64095		12.15917	
	345	1	1	5.21379		6.85961		11.58082	
	346	1	1	5.95511		6.12900		12.00072	
	347	1	1	5.47819		6.58294		12.90964	
	348	1	1	6.34607		7.19985		12.55487	
	349	1	1	7.30859		6.68527		12.81640	
	350	1	1	8.13480		6.29515		12.16460	
	351	1	1	9.07778		5.81751		11.78738	
	352	1	1	9.32064		6.38148		10.84791	
	353	1	1	8.68447		5.69448		10.22906	
	354	1	1	7.79405		5.01409		10.29127	
	355	1	1	7.03725		5.70367		10.75103	
	356	1	1	6.87166		5.11567		11.69256	
	357	1	1	6.34606		4.49485		12.46585	
	358	1	1	6.40455		5.10146		13.40831	
	359	1	1	6.88562		5.45036		14.36041	
	360	1	1	7.91202		5.43118		14.81405	
	361	1	1	8.07458		5.26203		0.91160	
	362	1	1	7.76804		4.20410		1.12720	
	363	1	1	7.19213		4.03792		2.07607	
	364	1	1	8.29039		4.20597		2.23485	
	365	1	1	8.06736		3.14097		1.95976	
	366	1	1	7.03514		2.70241		2.00264	
	367	1	1	7.85678		2.17864		2.55961	
	368	1	1	8.22403		1.38698		3.26534	
	369	1	1	8.94121		0.71357		3.80555	
	370	1	1	8.80718		1.68595		4.34976	
	371	1	1	9.25215		2.16023		3.43504	
	372	1	1	10.28954		2.41171		3.78177	
	373	1	1	10.50913		2.59506		2.69650	
	374	1	1	10.29340		1.94587		1.80675	
	375	1	1	10.55383		1.07097		1.15377	
	376	1	1	9.54000		0.75411		1.51628	
	377	1	1	8.75189		14.95578		1.48180	
	378	1	1	8.93100		13.91117		1.85106	
	379	1	1	9.81261		13.60060		2.47231	
	380	1	1	10.00781		13.25010		3.52049	
	381	1	1	10.85649		13.83219		3.96833	
	382	1	1	11.53606		12.96297		4.17397	
	383	1	1	10.66510		13.07802		4.87241	
	384	1	1	11.26520		14.01606		5.01238	
	385	1	1	12.25603		13.49511		5.09310	
	386	1	1	12.61876		12.88086		5.95957	
	387	1	1	11.87996		13.51350		6.51956	
	388	1	1	12.76924		14.18003		6.67630	
	389	1	1	13.84205		14.25477		6.99748	
	390	1	1	13.10200		14.11327		7.82932	
	391	1	1	14.05361		13.91098		8.38894	
	392	1	1	13.88765		12.83391		8.65732	
	393	1	1	14.23660		11.93388		9.22989	
	394	1	1	0.00044		11.26975		9.71478	
	395	1	1	0.56404		11.82343		10.51192	
	396	1	1	0.37641		12.39282		11.46073	
	397	1	1	0.87121		13.33463		11.10322	
	398	1	1	1.20335		13.00378		12.12296	
	399	1	1	0.14364		13.21980		12.42295	
	400	1	1	0.80055		12.70424		13.17283	
	401	1	2	0.19235		12.00941		12.53490	
	402	1	2	14.38641		11.24123		12.39344	
	403	1	2	13.51698		11.36677		13.09200	
	404	1	2	13.99084		10.36530		13.27133	
	405	1	2	13.35231		9.55539		13.71402	
	406	1	2	12.41198		8.94444		13.76052	
	407	1	2	11.92572		8.04506		13.29758	
	408	1	2	11.50323		7.83186		12.27989	
	409	1	2	10.75235		7.11232		11.85789	
	410	1	2	10.57372		6.02598		11.63969	
	411	1	2	11.69418		6.08450		11.66798	
	412	1	2	11.68503		5.84122		10.57236	
	413	1	2	11.57513		6.90976		10.89764	
	414	1	2	10.57471		7.40188		10.76871	
	415	1	2	10.21144		8.28229		11.36248	
	416	1	2	10.17641		8.53114		12.45632	
	417	1	2	9.10323		8.30240		12.22051	
	418	1	2	8.95636		9.34378		11.82860	
	419	1	2	9.73246		9.61527		11.06466	
	420	1	2	10.57793		9.54635		11.79956	
	421	1	2	11.20281		10.15906		12.50224	
	422	1	2	11.56836		9.14185		12.20008	
	423	1	2	12.50944		8.54436		12.06960	
	424	1	2	13.27111		8.07561		12.74767	
	425	1	2	13.17176		7.47605		11.80411	
	426	1	2	13.02434		7.41379		10.69324	
	427	1	2	13.99535		6.98347		10.33046	
	428	1	2	14.18118		6.47099		11.31152	
	429	1	2	14.02304		5.40657		10.99268	
	430	1	2	14.47093		4.39117		10.82536	
	431	1	2	14.59820		4.94883		9.85972	
	432	1	2	13.56573		4.64633		9.54012	
	433	1	2	13.33018		3.57805		9.28927	
	434	1	2	12.94952		3.42438		8.24470	
	435	1	2	11.94506		3.09937		7.86382	
	436	1	2	12.07655		2.42272		6.97810	
	437	1	2	12.86816		1.62740		6.99973	
	438	1	2	13.46893		2.38523		6.43016	
	439	1	2	14.15650		3.04756		5.84006	
	440	1	2	13.40944		2.85733		5.02436	
	441	1	2	13.29927		3.84045		4.49428	
	442	1	2	13.08766		3.03815		3.73851	
	443	1	2	13.85348		2.57949		3.05822	
	444	1	2	14.54133		2.40583		3.92791	
	445	1	2	0.61906		2.47905		3.62330	
	446	1	2	0.53376		1.36120		3.57051	
	447	1	2	0.19365		0.33704		3.26219	
	448	1	2	14.60968		14.52631		3.77341	
	449	1	2	14.82933		13.53871		3.28755	
	450	1	2	14.43354		12.51769		3.53352	
	451	1	2	14.27647		11.74560		2.73424	
	452	1	2	14.43300		11.46865		1.65793	
	453	1	2	0.55393		11.45586		1.71285	
	454	1	2	0.95956		10.92764		0.80947	
	455	1	2	1.20145		12.02353		0.82254	
	456	1	2	2.06052		11.61064		1.41513	
	457	1	2	2.08235		10.55974		1.80857	
	458	1	2	2.72634		10.15316		0.98418	
	459	1	2	2.84486		9.42205		1.82743	
	460	1	2	2.12358		9.23625		2.66700	
	461	1	2	1.50365		8.31055		2.80268	
	462	1	2	1.10514		8.06380		3.82246	
	463	1	2	0.81533		7.08444		3.35715	
	464	1	2	0.89602		7.14674		4.47485	
	465	1	2	1.33089		7.82673		5.25468	
	466	1	2	1.32202		6.76993		5.63249	
	467	1	2	2.40784		6.91772		5.87499	
	468	1	2	2.59335		7.77794		5.17838	
	469	1	2	3.66548		8.10068		5.25604	
	470	1	2	3.94799		7.41830		4.41095	
	471	1	2	4.55396		7.94837		3.62898	
	472	1	2	4.67947		9.00024		3.99976	
	473	1	2	5.66860		9.43623		4.30168	
	474	1	2	5.94303		9.40181		5.38941	
	475	1	2	6.76524		9.67598		6.10248	
	476	1	2	6.46067		10.04219		7.11873	
	477	1	2	6.76956		11.03897		6.70562	
	478	1	2	7.87727		10.99702		6.52993	
	479	1	2	7.31934		11.69537		5.85120	
	480	1	2	7.84060		12.11677		4.95100	
	481	1	2	7.70935		12.98276		5.65277	
	482	1	2	6.62470		12.74094		5.80990	
	483	1	2	7.29627		12.80014		6.70720	
	484	1	2	7.24440		12.35165		7.73472	
	485	1	2	8.11902		11.68486		7.95851	
	486	1	2	8.73325		11.85731		8.88190	
	487	1	2	9.21951		12.54215		9.62634	
	488	1	2	9.19529		13.20604		8.72173	
	489	1	2	9.09861		14.31305		8.56419	
	490	1	2	8.83825		0.40066		8.65895	
	491	1	2	9.61695		0.08762		7.91378	
	492	1	2	9.31620		14.51417		6.99707	
	493	1	2	8.75452		13.54403		6.94242	
	494	1	2	9.50876		12.77414		6.62931	
	495	1	2	9.39030		13.58494		5.86236	
	496	1	2	8.44564		14.12014		5.57806	
	497	1	2	7.60992		14.86848		5.54325	
	498	1	2	8.37979		0.67683		5.42696	
	499	1	2	8.02975		0.92409		6.46426	
	500	1	2	8.24673		0.05476		7.14015	
Bonds                                                                               
                                                                                    
	1	1	1	2
	2	1	2	3
	3	1	3	4
	4	1	4	5
	5	1	5	6
	6	1	6	7
	7	1	7	8
	8	1	8	9
	9	1	9	10
	10	1	10	11
	11	1	11	12
	12	1	12	13
	13	1	13	14
	14	1	14	15
	15	1	15	16
	16	1	16	17
	17	1	17	18
	18	1	18	19
	19	1	19	20
	20	1	20	21
	21	1	21	22
	22	1	22	23
	23	1	23	24
	24	1	24	25
	25	1	25	26
	26	1	26	27
	27	1	27	28
	28	1	28	29
	29	1	29	30
	30	1	30	31
	31	1	31	32
	32	1	32	33
	33	1	33	34
	34	1	34	35
	35	1	35	36
	36	1	36	37
	37	1	37	38
	38	1	38	39
	39	1	39	40
	40	1	40	41
	41	1	41	42
	42	1	42	43
	43	1	43	44
	44	1	44	45
	45	1	45	46
	46	1	46	47
	47	1	47	48
	48	1	48	49
	49	1	49	50
	50	1	50	51
	51	1	51	52
	52	1	52	53
	53	1	53	54
	54	1	54	55
	55	1	55	56
	56	1	56	57
	57	1	57	58
	58	1	58	59
	59	1	59	60
	60	1	60	61
	61	1	61	62
	62	1	62	63
	63	1	63	64
	64	1	64	65
	65	1	65	66
	66	1	66	67
	67	1	67	68
	68	1	68	69
	69	1	69	70
	70	1	70	71
	71	1	71	72
	72	1	72	73
	73	1	73	74
	74	1	74	75
	75	1	75	76
	76	1	76	77
	77	1	77	78
	78	1	78	79
	79	1	79	80
	80	1	80	81
	81	1	81	82
	82	1	82	83
	83	1	83	84
	84	1	84	85
	85	1	85	86
	86	1	86	87
	87	1	87	88
	88	1	88	89
	89	1	89	90
	90	1	90	91
	91	1	91	92
	92	1	92	93
	93	1	93	94
	94	1	94	95
	95	1	95	96
	96	1	96	97
	97	1	97	98
	98	1	98	99
	99	1	99	100
	100	1	100	101
	101	1	101	102
	102	1	102	103
	103	1	103	104
	104	1	104	105
	105	1	105	106
	106	1	106	107
	107	1	107	108
	108	1	108	109
	109	1	109	110
	110	1	110	111
	111	1	111	112
	112	1	112	113
	113	1	113	114
	114	1	114	115
	115	1	115	116
	116	1	116	117
	117	1	117	118
	118	1	118	119
	119	1	119	120
	120	1	120	121
	121	1	121	122
	122	1	122	123
	123	1	123	124
	124	1	124	125
	125	1	125	126
	126	1	126	127
	127	1	127	128
	128	1	128	129
	129	1	129	130
	130	1	130	131
	131	1	131	132
	132	1	132	133
	133	1	133	134
	134	1	134	135
	135	1	135	136
	136	1	136	137
	137	1	137	138
	138	1	138	139
	139	1	139	140
	140	1	140	141
	141	1	141	142
	142	1	142	143
	143	1	143	144
	144	1	144	145
	145	1	145	146
	146	1	146	147
	147	1	147	148
	148	1	148	149
	149	1	149	150
	150	1	150	151
	151	1	151	152
	152	1	152	153
	153	1	153	154
	154	1	154	155
	155	1	155	156
	156	1	156	157
	157	1	157	158
	158	1	158	159
	159	1	159	160
	160	1	160	161
	161	1	161	162
	162	1	162	163
	163	1	163	164
	164	1	164	165
	165	1	165	166
	166	1	166	167
	167	1	167	168
	168	1	168	169
	169	1	169	170
	170	1	170	171
	171	1	171	172
	172	1	172	173
	173	1	173	174
	174	1	174	175
	175	1	175	176
	176	1	176	177
	177	1	177	178
	178	1	178	179
	179	1	179	180
	180	1	180	181
	181	1	181	182
	182	1	182	183
	183	1	183	184
	184	1	184	185
	185	1	185	186
	186	1	186	187
	187	1	187	188
	188	1	188	189
	189	1	189	190
	190	1	190	191
	191	1	191	192
	192	1	192	193
	193	1	193	194
	194	1	194	195
	195	1	195	196
	196	1	196	197
	197	1	197	198
	198	1	198	199
	199	1	199	200
	200	1	200	201
	201	1	201	202
	202	1	202	203
	203	1	203	204
	204	1	204	205
	205	1	205	206
	206	1	206	207
	207	1	207	208
	208	1	208	209
	209	1	209	210
	210	1	210	211
	211	1	211	212
	212	1	212	213
	213	1	213	214
	214	1	214	215
	215	1	215	216
	216	1	216	217
	217	1	217	218
	218	1	218	219
	219	1	219	220
	220	1	220	221
	221	1	221	222
	222	1	222	223
	223	1	223	224
	224	1	224	225
	225	1	225	226
	226	1	226	227
	227	1	227	228
	228	1	228	229
	229	1	229	230
	230	1	230	231
	231	1	231	232
	232	1	232	233
	233	1	233	234
	234	1	234	235
	235	1	235	236
	236	1	236	237
	237	1	237	238
	238	1	238	239
	239	1	239	240
	240	1	240	241
	241	1	241	242
	242	1	242	243
	243	1	243	244
	244	1	244	245
	245	1	245	246
	246	1	246	247
	247	1	247	248
	248	1	248	249
	249	1	249	250
	250	1	250	251
	251	1	251	252
	252	1	252	253
	253	1	253	254
	254	1	254	255
	255	1	255	256
	256	1	256	257
	257	1	257	258
	258	1	258	259
	259	1	259	260
	260	1	260	261
	261	1	261	262
	262	1	262	263
	263	1	263	264
	264	1	264	265
	265	1	265	266
	266	1	266	267
	267	1	267	268
	268	1	268	269
	269	1	269	270
	270	1	270	271
	271	1	271	272
	272	1	272	273
	273	1	273	274
	274	1	274	275
	275	1	275	276
	276	1	276	277
	277	1	277	278
	278	1	278	279
	279	1	279	280
	280	1	280	281
	281	1	281	282
	282	1	282	283
	283	1	283	284
	284	1	284	285
	285	1	285	286
	286	1	286	287
	287	1	287	288
	288	1	288	289
	289	1	289	290
	290	1	290	291
	291	1	291	292
	292	1	292	293
	293	1	293	294
	294	1	294	295
	295	1	295	296
	296	1	296	297
	297	1	297	298
	298	1	298	299
	299	1	299	300
	300	1	300	301
	301	1	301	302
	302	1	302	303
	303	1	303	304
	304	1	304	305
	305	1	305	306
	306	1	306	307
	307	1	307	308
	308	1	308	309
	309	1	309	310
	310	1	310	311
	311	1	311	312
	312	1	312	313
	313	1	313	314
	314	1	314	315
	315	1	315	316
	316	1	316	317
	317	1	317	318
	318	1	318	319
	319	1	319	320
	320	1	320	321
	321	1	321	322
	322	1	322	323
	323	1	323	324
	324	1	324	325
	325	1	325	326
	326	1	326	327
	327	1	327	328
	328	1	328	329
	329	1	329	330
	330	1	330	331
	331	1	331	332
	332	1	332	333
	333	1	333	334
	334	1	334	335
	335	1	335	336
	336	1	336	337
	337	1	337	338
	338	1	338	339
	339	1	339	340
	340	1	340	341
	341	1	341	342
	342	1	342	343
	343	1	343	344
	344	1	344	345
	345	1	345	346
	346	1	346	347
	347	1	347	348
	348	1	348	349
	349	1	349	350
	350	1	350	351
	351	1	351	352
	352	1	352	353
	353	1	353	354
	354	1	354	355
	355	1	355	356
	356	1	356	357
	357	1	357	358
	358	1	358	359
	359	1	359	360
	360	1	360	361
	361	1	361	362
	362	1	362	363
	363	1	363	364
	364	1	364	365
	365	1	365	366
	366	1	366	367
	367	1	367	368
	368	1	368	369
	369	1	369	370
	370	1	370	371
	371	1	371	372
	372	1	372	373
	373	1	373	374
	374	1	374	375
	375	1	375	376
	376	1	376	377
	377	1	377	378
	378	1	378	379
	379	1	379	380
	380	1	380	381
	381	1	381	382
	382	1	382	383
	383	1	383	384
	384	1	384	385
	385	1	385	386
	386	1	386	387
	387	1	387	388
	388	1	388	389
	389	1	389	390
	390	1	390	391
	391	1	391	392
	392	1	392	393
	393	1	393	394
	394	1	394	395
	395	1	395	396
	396	1	396	397
	397	1	397	398
	398	1	398	399
	399	1	399	400
	400	1	400	401
	401	1	401	402
	402	1	402	403
	403	1	403	404
	404	1	404	405
	405	1	405	406
	406	1	406	407
	407	1	407	408
	408	1	408	409
	409	1	409	410
	410	1	410	411
	411	1	411	412
	412	1	412	413
	413	1	413	414
	414	1	414	415
	415	1	415	416
	416	1	416	417
	417	1	417	418
	418	1	418	419
	419	1	419	420
	420	1	420	421
	421	1	421	422
	422	1	422	423
	423	1	423	424
	424	1	424	425
	425	1	425	426
	426	1	426	427
	427	1	427	428
	428	1	428	429
	429	1	429	430
	430	1	430	431
	431	1	431	432
	432	1	432	433
	433	1	433	434
	434	1	434	435
	435	1	435	436
	436	1	436	437
	437	1	437	438
	438	1	438	439
	439	1	439	440
	440	1	440	441
	441	1	441	442
	442	1	442	443
	443	1	443	444
	444	1	444	445
	445	1	445	446
	446	1	446	447
	447	1	447	448
	448	1	448	449
	449	1	449	450
	450	1	450	451
	451	1	451	452
	452	1	452	453
	453	1	453	454
	454	1	454	455
	455	1	455	456
	456	1	456	457
	457	1	457	458
	458	1	458	459
	459	1	459	460
	460	1	460	461
	461	1	461	462
	462	1	462	463
	463	1	463	464
	464	1	464	465
	465	1	465	466
	466	1	466	467
	467	1	467	468
	468	1	468	469
	469	1	469	470
	470	1	470	471
	471	1	471	472
	472	1	472	473
	473	1	473	474
	474	1	474	475
	475	1	475	476
	476	1	476	477
	477	1	477	478
	478	1	478	479
	479	1	479	480
	480	1	480	481
	481	1	481	482
	482	1	482	483
	483	1	483	484
	484	1	484	485
	485	1	485	486
	486	1	486	487
	487	1	487	488
	488	1	488	489
	489	1	489	490
	490	1	490	491
	491	1	491	492
	492	1	492	493
	493	1	493	494
	494	1	494	495
	495	1	495	496
	496	1	496	497
	497	1	497	498
	498	1	498	499
	499	1	499	500
