#-----------------------------------------------------------------------------------           
# NANOPOLY - POLYMER NANOCOMPOSITE STRUCTURAL DATA FILE                                        
#-----------------------------------------------------------------------------------           
# FILENAME:  test_structure.in                                                                  
# DATE: 2021-08-18                                                                                
#-----------------------------------------------------------------------------------           
                                                                                               
200 atoms                                                             
199 bonds                                                             
                                                                                               
2 atom types                                      
1 bond types                                            
                                                                                    
0.0000 100.0000 xlo xhi            
0.0000 100.0000 ylo yhi            
0.0000 100.0000 zlo zhi            
                                                                                    
                                                                                    
# Types have been converted numerically as follows:                                 
# 1 a
# 2 b
                                                                                    
Masses                                                                              
                                                                                    
1	1.0
2	0.5

Atoms                                                                               

	1	1	1	45.00000		45.00000		45.00000	
	2	1	1	45.40561		45.63687		44.16962	
	3	1	1	46.36813		45.11747		43.91779	
	4	1	1	45.56854		44.36032		43.70090	
	5	1	1	45.10788		43.80588		44.56115	
	6	1	1	44.66160		43.08032		43.83036	
	7	1	1	45.44265		42.38973		44.24593	
	8	1	1	45.56460		42.20089		43.14633	
	9	1	1	45.03848		42.00407		42.17468	
	10	1	1	44.28927		42.32137		42.94775	
	11	1	1	43.64715		42.22556		42.03225	
	12	1	1	44.04753		41.57145		41.21282	
	13	1	1	44.48438		40.76102		40.57093	
	14	1	1	44.11626		39.71252		40.41348	
	15	1	1	43.47751		40.18573		39.62119	
	16	1	1	42.79146		40.92209		39.12445	
	17	1	1	43.78981		41.40951		38.96514	
	18	1	1	43.63154		40.91241		37.97141	
	19	1	1	42.81308		41.07062		37.21992	
	20	1	1	42.49455		40.35380		38.02263	
	21	1	1	41.57200		39.71784		38.08672	
	22	1	1	40.87486		38.91844		38.45363	
	23	1	1	40.85897		38.27209		37.53623	
	24	1	1	40.51965		38.03899		36.49211	
	25	1	1	40.80209		36.96865		36.30705	
	26	1	1	41.34257		37.20589		35.35246	
	27	1	1	41.75878		38.24432		35.44241	
	28	1	1	42.64017		37.57480		35.62826	
	29	1	1	42.70103		38.36307		36.42486	
	30	1	1	43.08900		38.79157		37.38690	
	31	1	1	44.06472		39.29076		37.14517	
	32	1	1	44.60640		38.49393		36.56957	
	33	1	1	45.72573		38.51196		36.64969	
	34	1	1	45.88904		37.73715		37.44508	
	35	1	1	45.84529		38.14740		38.48883	
	36	1	1	45.49902		38.86534		39.27896	
	37	1	1	44.57649		38.35131		38.89902	
	38	1	1	44.93751		37.52202		38.23451	
	39	1	1	44.28606		37.61795		37.32563	
	40	1	1	44.74056		36.60864		37.51097	
	41	1	1	44.12477		35.92394		36.86939	
	42	1	1	44.26506		35.46566		35.85452	
	43	1	1	44.79056		34.63346		35.31513	
	44	1	1	43.82132		34.39515		34.80188	
	45	1	1	42.80790		33.95528		34.60402	
	46	1	1	42.64776		35.00256		34.97443	
	47	1	1	41.94204		34.20782		35.33496	
	48	1	1	41.38033		33.34474		34.88862	
	49	1	1	40.75209		33.61369		35.77892	
	50	1	1	40.19781		32.68486		35.47943	
	51	1	1	39.34390		31.96159		35.39361	
	52	1	1	38.58730		31.47765		34.72056	
	53	1	1	38.40520		30.71228		33.92012	
	54	1	1	39.38539		31.22150		33.72119	
	55	1	1	40.23780		30.82197		33.11011	
	56	1	1	41.31537		30.52243		33.20369	
	57	1	1	41.80192		31.03994		34.07266	
	58	1	1	42.25916		31.20655		35.08400	
	59	1	1	41.97259		32.15892		34.56389	
	60	1	1	42.41019		32.45594		33.57397	
	61	1	1	41.86039		32.80918		32.66152	
	62	1	1	41.92670		31.72143		32.39310	
	63	1	1	42.59189		30.90433		32.00643	
	64	1	1	42.53091		30.77221		33.11930	
	65	1	1	43.56622		31.04754		33.45391	
	66	1	1	44.11708		30.77166		34.39205	
	67	1	1	43.19317		30.15941		34.56863	
	68	1	1	42.74576		29.35321		33.92869	
	69	1	1	42.20751		28.46809		34.36056	
	70	1	1	42.36216		29.19147		35.20463	
	71	1	1	41.54344		29.90786		35.48056	
	72	1	1	40.80230		30.58335		35.98459	
	73	1	1	40.51555		30.86840		34.93761	
	74	1	1	40.96635		31.83551		35.28564	
	75	1	1	41.70932		31.59025		36.09031	
	76	1	1	42.04276		32.47039		36.70171	
	77	1	1	42.19812		33.23159		35.89173	
	78	1	1	42.03641		34.13014		36.54450	
	79	1	1	43.12601		34.05858		36.28507	
	80	1	1	43.17228		33.91327		37.39700	
	81	1	1	43.52119		34.92391		37.73832	
	82	1	1	43.01068		35.73427		38.32343	
	83	1	1	42.08789		35.91452		37.71056	
	84	1	1	42.46715		34.93203		37.32259	
	85	1	1	42.35245		34.56072		38.37550	
	86	1	1	42.65370		34.06534		39.33648	
	87	1	1	41.94440		33.20605		39.47132	
	88	1	1	42.23007		33.83471		40.35609	
	89	1	1	42.71910		32.98461		40.90182	
	90	1	1	43.57579		33.35604		40.27911	
	91	1	1	43.59707		34.42419		39.93524	
	92	1	1	44.26890		35.13834		40.48139	
	93	1	1	43.47227		34.64289		41.09747	
	94	1	1	43.90347		35.60881		41.47258	
	95	1	1	44.92308		36.06536		41.58032	
	96	1	1	44.70313		36.07633		42.68084	
	97	1	1	44.34798		37.07583		42.31407	
	98	1	1	44.71926		37.98052		42.86483	
	99	1	1	45.28698		37.86940		43.82660	
	100	1	1	46.25447		38.31524		44.17991	
	101	1	1	47.25128		38.48234		44.66785	
	102	1	1	47.80559		39.27350		45.23921	
	103	1	1	48.39442		38.63990		45.95438	
	104	1	1	48.71420		38.63542		47.03019	
	105	1	1	48.04470		37.79344		46.71006	
	106	1	1	47.41573		36.86708		46.78686	
	107	1	1	47.26294		36.40752		45.77439	
	108	1	1	46.62205		35.48645		45.79749	
	109	1	1	46.23691		34.47120		46.08138	
	110	1	1	45.93161		35.06154		46.98577	
	111	1	1	45.91990		33.94380		47.08653	
	112	1	1	44.99497		33.48606		46.64537	
	113	1	1	45.12174		34.56355		46.35799	
	114	1	1	45.21528		34.80751		45.26649	
	115	1	1	44.13772		34.49739		45.21817	
	116	1	1	43.33408		35.16528		44.80862	
	117	1	1	44.24849		35.80206		44.67438	
	118	1	1	44.92628		36.67940		44.49970	
	119	1	1	44.15288		37.23340		43.90422	
	120	1	1	44.42866		37.67236		44.89966	
	121	1	1	44.95726		38.66104		44.95204	
	122	1	1	45.46310		39.61749		44.65378	
	123	1	1	45.38977		40.69763		44.94969	
	124	1	1	45.78959		41.05510		43.96379	
	125	1	1	46.52569		40.43442		43.38711	
	126	1	1	46.13875		39.38966		43.52277	
	127	1	1	47.22295		39.10295		43.56704	
	128	1	1	48.09291		39.76512		43.82071	
	129	1	1	48.19759		40.88203		43.78581	
	130	1	1	47.56345		41.16773		42.90496	
	131	1	1	47.67674		40.63162		41.92547	
	132	1	1	47.47123		40.56002		40.82443	
	133	1	1	46.43882		40.83406		40.47994	
	134	1	1	46.09337		39.87731		40.00565	
	135	1	1	45.89312		38.96211		40.62368	
	136	1	1	46.34069		39.03045		41.65065	
	137	1	1	47.25828		39.58517		41.98225	
	138	1	1	47.66656		38.81398		41.27639	
	139	1	1	47.89452		37.96583		41.97519	
	140	1	1	48.08529		38.40326		42.99102	
	141	1	1	48.29206		37.33896		43.28113	
	142	1	1	47.18393		37.49851		43.36022	
	143	1	1	46.31986		36.87592		43.71435	
	144	1	1	46.19293		35.95718		43.08233	
	145	1	1	46.03659		35.54872		44.11594	
	146	1	1	46.10542		36.17124		45.04727	
	147	1	1	45.63971		37.16618		45.27715	
	148	1	1	46.49757		37.57923		45.87139	
	149	1	1	46.10558		37.12332		46.81909	
	150	1	1	45.39755		37.87355		47.26124	
	151	1	1	45.24226		37.60142		48.33895	
	152	1	1	46.26757		37.77002		48.76319	
	153	1	1	46.42812		38.85156		49.01644	
	154	1	1	47.47588		38.93740		48.62339	
	155	1	1	47.13936		39.54253		47.74009	
	156	1	1	47.08479		40.51969		48.28947	
	157	1	1	47.47637		41.08165		49.17858	
	158	1	1	48.20056		41.88162		48.86996	
	159	1	1	47.98412		42.93606		48.55224	
	160	1	1	46.89816		43.00148		48.27647	
	161	1	1	46.87464		44.07232		47.94123	
	162	1	1	47.21607		44.63717		48.84899	
	163	1	1	47.12800		45.74721		48.70864	
	164	1	1	46.27042		45.21945		48.21298	
	165	1	1	45.23862		45.57196		47.94694	
	166	1	1	44.36095		44.96807		47.59386	
	167	1	1	44.91329		44.14944		48.12716	
	168	1	1	45.09261		44.01606		49.22703	
	169	1	1	46.11030		44.48667		49.27685	
	170	1	1	45.72311		43.99378		50.20786	
	171	1	1	45.16088		44.30935		51.12654	
	172	1	1	45.75271		45.17424		51.52823	
	173	1	1	46.58530		45.92642		51.50254	
	174	1	1	47.21661		46.73910		51.05461	
	175	1	1	46.25301		46.77197		50.48012	
	176	1	1	45.51494		46.70465		49.63729	
	177	1	1	44.63142		46.54632		50.31106	
	178	1	1	43.55885		46.61144		50.63511	
	179	1	1	43.37112		45.50909		50.53907	
	180	1	1	42.57677		45.75212		51.29378	
	181	1	1	42.02083		45.47783		50.35819	
	182	1	1	41.44133		44.52522		50.48610	
	183	1	1	40.70754		44.40691		51.32706	
	184	1	1	39.96034		43.57524		51.22881	
	185	1	1	39.44028		42.68495		50.78544	
	186	1	1	38.99856		41.93881		51.49805	
	187	1	1	39.25049		41.26382		52.35860	
	188	1	1	40.11655		41.97613		52.31167	
	189	1	1	40.99409		42.67576		52.30226	
	190	1	1	41.85222		43.39856		52.27363	
	191	1	1	42.71297		44.11802		52.24005	
	192	1	1	43.55910		44.85377		52.19118	
	193	1	1	44.39101		45.60714		52.19017	
	194	1	1	45.25891		46.31867		52.17857	
	195	1	1	46.15441		46.99305		52.23271	
	196	1	1	47.02389		47.70219		52.26029	
	197	1	1	47.91468		48.37245		52.13029	
	198	1	1	48.80688		49.04988		52.19892	
	199	1	1	49.53226		49.88335		52.39590	
	200	1	1	50.10710		50.78043		52.04312	
Bonds                                                                               
                                                                                    
	1	1	1	2
	2	1	2	3
	3	1	3	4
	4	1	4	5
	5	1	5	6
	6	1	6	7
	7	1	7	8
	8	1	8	9
	9	1	9	10
	10	1	10	11
	11	1	11	12
	12	1	12	13
	13	1	13	14
	14	1	14	15
	15	1	15	16
	16	1	16	17
	17	1	17	18
	18	1	18	19
	19	1	19	20
	20	1	20	21
	21	1	21	22
	22	1	22	23
	23	1	23	24
	24	1	24	25
	25	1	25	26
	26	1	26	27
	27	1	27	28
	28	1	28	29
	29	1	29	30
	30	1	30	31
	31	1	31	32
	32	1	32	33
	33	1	33	34
	34	1	34	35
	35	1	35	36
	36	1	36	37
	37	1	37	38
	38	1	38	39
	39	1	39	40
	40	1	40	41
	41	1	41	42
	42	1	42	43
	43	1	43	44
	44	1	44	45
	45	1	45	46
	46	1	46	47
	47	1	47	48
	48	1	48	49
	49	1	49	50
	50	1	50	51
	51	1	51	52
	52	1	52	53
	53	1	53	54
	54	1	54	55
	55	1	55	56
	56	1	56	57
	57	1	57	58
	58	1	58	59
	59	1	59	60
	60	1	60	61
	61	1	61	62
	62	1	62	63
	63	1	63	64
	64	1	64	65
	65	1	65	66
	66	1	66	67
	67	1	67	68
	68	1	68	69
	69	1	69	70
	70	1	70	71
	71	1	71	72
	72	1	72	73
	73	1	73	74
	74	1	74	75
	75	1	75	76
	76	1	76	77
	77	1	77	78
	78	1	78	79
	79	1	79	80
	80	1	80	81
	81	1	81	82
	82	1	82	83
	83	1	83	84
	84	1	84	85
	85	1	85	86
	86	1	86	87
	87	1	87	88
	88	1	88	89
	89	1	89	90
	90	1	90	91
	91	1	91	92
	92	1	92	93
	93	1	93	94
	94	1	94	95
	95	1	95	96
	96	1	96	97
	97	1	97	98
	98	1	98	99
	99	1	99	100
	100	1	100	101
	101	1	101	102
	102	1	102	103
	103	1	103	104
	104	1	104	105
	105	1	105	106
	106	1	106	107
	107	1	107	108
	108	1	108	109
	109	1	109	110
	110	1	110	111
	111	1	111	112
	112	1	112	113
	113	1	113	114
	114	1	114	115
	115	1	115	116
	116	1	116	117
	117	1	117	118
	118	1	118	119
	119	1	119	120
	120	1	120	121
	121	1	121	122
	122	1	122	123
	123	1	123	124
	124	1	124	125
	125	1	125	126
	126	1	126	127
	127	1	127	128
	128	1	128	129
	129	1	129	130
	130	1	130	131
	131	1	131	132
	132	1	132	133
	133	1	133	134
	134	1	134	135
	135	1	135	136
	136	1	136	137
	137	1	137	138
	138	1	138	139
	139	1	139	140
	140	1	140	141
	141	1	141	142
	142	1	142	143
	143	1	143	144
	144	1	144	145
	145	1	145	146
	146	1	146	147
	147	1	147	148
	148	1	148	149
	149	1	149	150
	150	1	150	151
	151	1	151	152
	152	1	152	153
	153	1	153	154
	154	1	154	155
	155	1	155	156
	156	1	156	157
	157	1	157	158
	158	1	158	159
	159	1	159	160
	160	1	160	161
	161	1	161	162
	162	1	162	163
	163	1	163	164
	164	1	164	165
	165	1	165	166
	166	1	166	167
	167	1	167	168
	168	1	168	169
	169	1	169	170
	170	1	170	171
	171	1	171	172
	172	1	172	173
	173	1	173	174
	174	1	174	175
	175	1	175	176
	176	1	176	177
	177	1	177	178
	178	1	178	179
	179	1	179	180
	180	1	180	181
	181	1	181	182
	182	1	182	183
	183	1	183	184
	184	1	184	185
	185	1	185	186
	186	1	186	187
	187	1	187	188
	188	1	188	189
	189	1	189	190
	190	1	190	191
	191	1	191	192
	192	1	192	193
	193	1	193	194
	194	1	194	195
	195	1	195	196
	196	1	196	197
	197	1	197	198
	198	1	198	199
	199	1	199	200
