#-----------------------------------------------------------------------------------           
# NANOPOLY - POLYMER NANOCOMPOSITE STRUCTURAL DATA FILE                                        
#-----------------------------------------------------------------------------------           
# FILENAME:  test_structure.in                                                                  
# DATE: 2021-04-28                                                                                
#-----------------------------------------------------------------------------------           
                                                                                               
428 atoms                                                             
341 bonds                                                             
                                                                                               
9 atom types                                            
1 bond types                                            
                                                                                    
0.0000 4.2420 xlo xhi            
0.0000 4.2420 ylo yhi            
0.0000 4.2420 zlo zhi            
                                                                                    
                                                                                    
# Types have been converted numerically as follows:                                 
# 1	a
# 2	b
# 3	c
# 4	cl4
# 5	cl5
# 6	e
# 7	f
# 8	cl8
# 9	cl9
                                                                                    
Masses                                                                              
                                                                                    
1	1.0
2	1.0
3	1.0
4	3.0
5	3.0
6	0.5
7	0.3
8	3.0
9	3.0


Atoms                                                                               

	1	1	1	0.18838		0.39125		1.00322	
	2	1	2	0.47444		0.73581		0.97177	
	3	1	3	0.66425		0.36326		1.13524	
	4	1	1	0.65396		0.48465		0.70315	
	5	1	2	0.26344		0.66415		0.57346	
	6	1	3	0.38352		0.89436		0.20724	
	7	1	1	0.44236		0.92278		0.65139	
	8	1	2	0.77436		1.22147		0.69723	
	9	1	3	0.81657		1.64910		0.82720	
	10	1	1	0.49273		1.34122		0.87058	
	11	1	2	0.52400		1.14045		1.27090	
	12	1	3	0.51850		0.70001		1.35764	
	13	1	1	0.64253		0.58122		1.77243	
	14	1	2	0.72837		0.17362		1.60499	
	15	1	3	0.30929		0.21008		1.44820	
	16	1	1	0.09995		4.05949		1.38827	
	17	1	2	3.95920		4.05238		1.62277	
	18	1	3	3.64042		3.98673		1.31356	
	19	1	1	3.40515		3.69063		1.07164	
	20	1	2	3.50509		3.63370		1.50560	
	21	2	1	3.46695		1.35333		1.76250	
	22	2	2	3.53444		0.92103		1.86305	
	23	2	3	3.49883		0.71535		2.26051	
	24	2	1	3.11274		0.66333		2.48362	
	25	2	2	2.94444		0.92066		2.81072	
	26	2	3	3.27517		1.18652		2.66418	
	27	2	1	3.36871		0.77847		2.82632	
	28	2	2	3.46774		0.66091		3.24812	
	29	2	3	3.63034		1.04712		3.08705	
	30	2	1	3.79554		0.97227		3.49772	
	31	2	2	4.09444		1.14454		3.21044	
	32	2	3	4.08551		1.33141		2.80235	
	33	2	1	0.05038		1.15378		2.44571	
	34	2	2	4.02634		1.10306		2.08767	
	35	2	3	3.75527		1.25789		2.41030	
	36	2	1	3.61264		1.56853		2.70134	
	37	2	2	3.64336		1.55022		3.14885	
	38	2	3	3.25489		1.58288		3.37149	
	39	2	1	3.06641		1.86333		3.07592	
	40	2	2	2.99544		1.76294		3.50769	
	41	3	1	1.13791		0.70325		2.37401	
	42	3	2	1.11896		1.13628		2.49092	
	43	3	3	1.47596		0.87148		2.55404	
	44	3	1	1.89718		0.99940		2.64208	
	45	3	2	1.99214		0.58704		2.49214	
	46	3	3	2.35392		0.49836		2.74273	
	47	3	1	2.40739		0.36517		2.31735	
	48	3	2	2.18593		0.21509		1.95682	
	49	3	3	2.01106		4.20664		2.28581	
	50	3	1	1.89214		3.97067		1.92287	
	51	3	2	2.33518		4.01205		1.86331	
	52	3	3	2.29891		4.12135		1.42940	
	53	3	1	1.94422		4.23377		1.68059	
	54	3	2	1.78371		0.03567		2.09754	
	55	3	3	1.36580		0.19968		2.09758	
	56	3	1	1.56903		4.12594		2.34365	
	57	3	2	1.15304		0.01982		2.24348	
	58	3	3	0.92014		3.90163		2.37605	
	59	3	1	0.84089		3.88514		2.81762	
	60	3	2	1.27951		3.95200		2.88608	
	61	4	1	3.94367		0.79881		0.91316	
	62	4	2	4.17206		1.09918		1.15640	
	63	4	3	4.08519		1.17687		0.72285	
	64	4	1	0.12875		1.46772		0.53469	
	65	4	2	0.15820		1.06951		0.32950	
	66	4	3	4.02261		0.94655		0.53890	
	67	4	1	3.66634		0.79753		0.76782	
	68	4	2	3.70627		0.85976		1.21063	
	69	4	3	4.03987		0.98965		1.48152	
	70	4	1	4.05399		1.26722		1.83408	
	71	4	2	0.08625		1.21712		1.48221	
	72	4	3	4.07620		1.58862		1.48386	
	73	4	1	3.97827		2.02007		1.40768	
	74	4	2	4.15130		1.92017		1.80971	
	75	4	3	0.17721		1.81129		1.46633	
	76	4	1	0.06613		2.24564		1.48984	
	77	4	2	0.48454		2.34189		1.62106	
	78	4	3	0.45744		2.33977		2.06917	
	79	4	1	0.63919		1.94329		2.17554	
	80	4	2	0.39161		2.09907		1.83497	
	81	5	1	2.79846		2.38522		0.50394	
	82	5	2	2.37404		2.27230		0.59702	
	83	5	3	2.43108		1.82956		0.64468	
	84	5	1	2.70716		1.81449		0.29099	
	85	5	2	2.26626		1.73096		0.27768	
	86	5	3	2.30058		1.64610		4.08018	
	87	5	1	2.36754		1.99962		0.10667	
	88	5	2	2.40273		2.37506		4.10507	
	89	5	3	2.26823		2.20652		3.71131	
	90	5	1	2.20756		2.58033		3.95240	
	91	5	2	1.90765		2.47343		3.63590	
	92	5	3	1.57532		2.17243		3.61345	
	93	5	1	1.52844		1.74118		3.72906	
	94	5	2	1.34446		1.73807		4.13855	
	95	5	3	1.35362		2.05847		3.82421	
	96	5	1	1.24793		2.45959		3.65254	
	97	5	2	1.50178		2.80148		3.79474	
	98	5	3	1.20721		3.11562		3.92157	
	99	5	1	1.13771		3.48742		3.67975	
	100	5	2	1.46077		3.76510		3.82142	
	101	6	1	0.68864		2.48703		0.14048	
	102	6	2	0.33276		2.58575		0.39571	
	103	6	3	0.29282		2.50441		0.83541	
	104	6	1	0.05788		2.68801		0.49979	
	105	6	2	3.95404		2.50783		0.72221	
	106	6	3	3.66268		2.57509		1.05707	
	107	6	1	4.08529		2.70873		0.98578	
	108	6	2	3.87765		2.35986		1.17741	
	109	6	3	3.51192		2.45364		1.42028	
	110	6	1	3.89028		2.62080		1.59477	
	111	6	2	3.93003		2.97310		1.87017	
	112	6	3	3.53345		3.03553		2.07110	
	113	6	1	3.34342		3.44200		2.08567	
	114	6	2	3.52690		3.85008		2.12242	
	115	6	3	3.90732		4.02879		2.28018	
	116	6	1	3.54987		3.83486		2.47035	
	117	6	2	3.91720		3.60434		2.35429	
	118	6	3	0.03041		3.50916		2.61181	
	119	6	1	0.47803		3.50211		2.64543	
	120	6	2	0.67668		3.12602		2.50177	
	121	7	1	4.14103		3.54830		0.89120	
	122	7	2	0.01921		3.90306		1.13867	
	123	7	3	0.15903		0.02477		0.91572	
	124	7	1	0.35757		3.95094		1.16547	
	125	7	2	0.18829		3.56759		1.00444	
	126	7	3	0.49446		3.49315		1.32421	
	127	7	1	0.32638		3.19313		1.03563	
	128	7	2	0.17568		3.45672		1.36631	
	129	7	3	3.99012		3.53299		1.25263	
	130	7	1	3.62497		3.33154		1.08643	
	131	7	2	3.33569		3.25691		0.75133	
	132	7	3	3.69482		3.17277		0.49542	
	133	7	1	3.27171		3.05139		0.40715	
	134	7	2	3.11816		2.82350		0.05214	
	135	7	3	3.48936		3.07550		0.03635	
	136	7	1	3.73421		2.75957		4.07394	
	137	7	2	3.49971		2.49366		3.79855	
	138	7	3	3.14737		2.26268		3.64346	
	139	7	1	3.36449		1.94472		3.41259	
	140	7	2	3.50915		2.32387		3.22061	
	141	8	1	3.31094		3.07121		1.12549	
	142	8	2	2.91008		3.13681		1.31667	
	143	8	3	2.86623		2.69818		1.40167	
	144	8	1	2.51251		2.64794		1.67353	
	145	8	2	2.39208		2.24745		1.51031	
	146	8	3	2.49291		2.64494		1.32761	
	147	8	1	2.20334		2.93388		1.14266	
	148	8	2	1.97231		3.25221		1.35907	
	149	8	3	2.22543		3.35027		1.00149	
	150	8	1	2.40103		2.96326		0.85679	
	151	8	2	2.47296		3.40519		0.82404	
	152	8	3	2.65213		3.27006		1.21286	
	153	8	1	2.43510		3.33757		1.60001	
	154	8	2	2.04390		3.13252		1.68042	
	155	8	3	1.62370		3.01728		1.57229	
	156	8	1	1.48890		2.73829		1.24743	
	157	8	2	1.28563		3.12789		1.33926	
	158	8	3	1.20840		2.98574		0.92048	
	159	8	1	1.61105		3.11561		0.77031	
	160	8	2	1.45720		3.29058		0.38657	
	161	9	1	3.49480		1.58468		1.01123	
	162	9	2	3.33527		1.96653		1.18526	
	163	9	3	3.61542		2.10656		1.50690	
	164	9	1	3.22171		1.98151		1.68268	
	165	9	2	3.19397		2.11465		2.11052	
	166	9	3	3.19866		2.39106		1.75680	
	167	9	1	3.01936		2.55462		2.13449	
	168	9	2	2.75462		2.30842		1.86833	
	169	9	3	2.47848		2.17765		2.19726	
	170	9	1	2.57697		2.32098		2.61114	
	171	9	2	2.23697		2.54761		2.42517	
	172	9	3	1.98156		2.19660		2.31069	
	173	9	1	1.55226		2.06534		2.31408	
	174	9	2	1.22046		2.27930		2.52781	
	175	9	3	1.04522		2.37491		2.92991	
	176	9	1	0.83183		2.74193		3.07589	
	177	9	2	0.64452		2.70444		2.66962	
	178	9	3	0.38132		2.35231		2.57866	
	179	9	1	0.36210		2.43236		3.01998	
	180	9	2	0.02409		2.49092		2.73040	
	181	10	1	2.44810		1.05008		0.11666	
	182	10	2	2.79886		1.21843		4.13468	
	183	10	3	3.08781		1.53573		0.02450	
	184	10	1	3.43779		1.40074		0.27115	
	185	10	2	3.59633		1.09049		4.23004	
	186	10	3	3.83398		0.80585		3.97696	
	187	10	1	4.14436		0.64543		3.69505	
	188	10	2	0.27053		0.56862		3.44990	
	189	10	3	0.58134		0.62504		3.13091	
	190	10	1	0.42444		0.68674		2.71484	
	191	10	2	0.00218		0.54283		2.66460	
	192	10	3	3.85107		0.71409		2.53164	
	193	10	1	3.47337		0.94424		2.45473	
	194	10	2	3.46601		1.17096		2.06732	
	195	10	3	3.13745		0.92642		1.88349	
	196	10	1	2.85593		0.82024		2.21669	
	197	10	2	2.54449		0.79202		1.89458	
	198	10	3	2.63227		0.36679		1.78048	
	199	10	1	2.77669		0.65025		1.46372	
	200	10	2	2.98599		0.78495		1.09010	
	201	11	6	1.05238		2.68706		3.36291	
	202	11	7	0.82429		3.03045		3.54068	
	203	11	6	0.67996		3.40733		3.73734	
	204	11	7	0.82024		3.40590		3.31088	
	205	11	6	1.26422		3.45628		3.35432	
	206	11	7	1.58399		3.67302		3.12560	
	207	11	6	1.80419		3.43447		3.43568	
	208	11	7	2.01120		3.30417		3.05923	
	209	11	6	1.93860		2.96901		2.76950	
	210	11	7	1.74135		2.61814		2.96830	
	211	11	6	1.35789		2.43701		3.11560	
	212	11	7	1.69250		2.14535		3.18280	
	213	11	6	2.12928		2.23804		3.22941	
	214	11	7	2.49924		2.42212		3.40488	
	215	11	6	2.39637		1.98518		3.39831	
	216	11	7	2.67901		1.75993		3.13200	
	217	11	6	2.79281		1.34433		3.25797	
	218	11	7	2.70625		1.23043		2.83244	
	219	11	6	2.42406		1.57953		2.82619	
	220	11	7	2.01612		1.47671		2.98290	
	221	12	6	0.01009		3.12596		0.70590	
	222	12	7	3.86541		2.94671		0.84695	
	223	12	6	3.91039		2.74072		0.45060	
	224	12	7	3.63676		2.53520		0.16003	
	225	12	6	3.76381		2.14887		4.21189	
	226	12	7	3.65719		1.88539		0.31738	
	227	12	6	3.99323		1.60764		0.21023	
	228	12	7	4.20208		1.80071		4.10488	
	229	12	6	4.20871		1.70397		3.66654	
	230	12	7	4.08322		1.49033		4.04092	
	231	12	6	4.21238		1.06444		3.98197	
	232	12	7	0.00339		1.13423		3.53972	
	233	12	6	0.21540		0.80553		3.76007	
	234	12	7	4.12242		0.73144		4.04962	
	235	12	6	0.27254		0.63369		0.00315	
	236	12	7	0.69510		0.61775		0.15394	
	237	12	6	0.72801		0.18987		0.28575	
	238	12	7	0.51920		4.04048		0.21678	
	239	12	6	0.31905		4.21921		0.57669	
	240	12	7	0.75111		0.09154		0.61913	
	241	13	6	1.19998		0.99454		2.83052	
	242	13	7	1.05148		1.41820		2.82732	
	243	13	6	0.63368		1.35278		2.97802	
	244	13	7	0.65345		1.75227		3.18189	
	245	13	6	1.03218		1.98413		3.11592	
	246	13	7	0.93329		2.18663		3.50420	
	247	13	6	0.85569		1.74448		3.49874	
	248	13	7	1.20037		1.78183		3.78395	
	249	13	6	0.96859		2.12727		3.95275	
	250	13	7	0.74785		2.48572		3.79677	
	251	13	6	0.35613		2.54653		4.00750	
	252	13	7	0.39818		2.20276		0.05116	
	253	13	6	0.44507		1.95203		0.42059	
	254	13	7	0.05629		2.17378		0.38566	
	255	13	6	4.02366		2.46330		0.17998	
	256	13	7	4.20570		2.12390		4.19129	
	257	13	6	0.35042		2.13852		3.96375	
	258	13	7	0.34684		1.83494		0.05245	
	259	13	6	0.77441		1.81661		4.15883	
	260	13	7	0.87465		1.47866		0.19483	
	261	14	7	2.71638		1.66639		1.57052	
	262	14	7	2.48236		1.82862		1.22344	
	263	14	7	2.27460		1.43674		1.29281	
	264	14	7	2.10706		1.04974		1.13885	
	265	14	7	1.80316		0.77706		1.32549	
	266	14	7	1.42027		0.98732		1.22193	
	267	14	7	1.81634		1.19786		1.24052	
	268	14	7	1.55988		1.23888		1.60670	
	269	14	7	1.40997		1.40837		1.21896	
	270	14	7	1.01390		1.21205		1.29728	
	271	14	7	0.87035		0.79553		1.38357	
	272	14	7	0.80684		0.97189		0.97564	
	273	14	7	1.18271		0.73549		1.04185	
	274	14	7	1.07817		1.06158		0.75154	
	275	14	7	1.10337		0.83032		0.36758	
	276	14	7	0.67941		0.97768		0.35834	
	277	14	7	0.55826		1.09290		4.18369	
	278	14	7	0.69916		1.33845		3.83527	
	279	14	7	0.47121		1.72518		3.83017	
	280	14	7	0.37419		2.04527		3.53072	
	281	15	7	1.17120		0.01460		0.38913	
	282	15	7	0.80528		4.15063		0.15161	
	283	15	7	0.56943		4.15826		4.01170	
	284	15	7	0.83133		3.97492		3.69651	
	285	15	7	0.68989		0.12130		3.52128	
	286	15	7	0.55320		0.53995		3.60840	
	287	15	7	0.50787		0.95806		3.76548	
	288	15	7	0.92652		0.92732		3.92465	
	289	15	7	0.97305		0.95819		0.12810	
	290	15	7	1.29800		0.73487		4.15543	
	291	15	7	1.70344		0.86728		0.05353	
	292	15	7	1.81046		0.82229		0.48719	
	293	15	7	2.00946		0.57503		0.16969	
	294	15	7	2.41887		0.61689		4.23232	
	295	15	7	2.35167		0.27446		0.27275	
	296	15	7	2.43856		0.22064		4.07760	
	297	15	7	2.46020		4.02267		4.16419	
	298	15	7	2.02518		3.93484		4.09648	
	299	15	7	2.03806		3.61906		0.17332	
	300	15	7	1.77738		3.64408		4.05068	
	301	16	5	3.69675		2.03564		1.02857	
	302	16	5	4.20880		0.71878		0.31074	
	303	16	5	4.15982		3.73716		1.48824	
	304	16	5	0.33534		0.90899		1.53705	
	305	16	5	3.81320		1.24196		1.26052	
	311	17	8	2.83322		1.05719		3.16988	
	312	17	8	3.59116		2.67486		0.74262	
	313	17	8	0.38580		2.24628		0.60052	
	314	17	8	0.80402		1.08686		2.73252	
	315	17	8	0.31303		1.48006		1.28364	
	316	17	8	1.22251		1.41369		3.93880	
	317	17	8	3.76856		2.22419		0.37428	
	318	17	8	3.96421		2.03369		3.88543	
	319	17	8	3.75222		0.92427		2.19855	
	320	17	8	0.24713		0.96402		3.39418	
	321	17	8	1.67883		3.97462		2.88056	
	322	17	8	1.00495		2.78809		3.74703	
	323	17	8	1.92524		3.51385		1.65794	
	324	17	8	3.84523		1.10385		0.92583	
	325	17	8	3.03260		1.37075		3.57704	
	326	17	8	1.62572		2.50089		3.35348	
	327	17	8	1.28962		3.83908		3.46753	
	328	17	8	0.13835		1.01258		0.72493	
	329	17	8	1.39207		2.50867		2.80699	
	330	17	8	0.32632		3.37002		0.68520	
	331	17	8	3.49645		2.31259		1.06583	
	332	17	8	1.86655		2.65992		2.52605	
	333	17	8	1.29365		2.11610		3.34557	
	329	18	4	2.71382		0.47696		3.88650	
	330	18	4	1.54635		0.02975		1.86864	
	331	18	4	2.26018		2.51300		1.09043	
	332	18	4	1.26693		1.75882		3.14750	
	333	18	4	0.54482		1.53104		0.26100	
	334	18	4	3.84992		2.48281		4.03548	
	335	18	4	1.59521		3.48149		0.05817	
	336	18	4	1.96097		2.90431		3.16401	
	337	18	4	2.06464		1.99974		3.42109	
	338	18	4	2.85378		1.27610		0.24940	
	339	18	4	0.12120		1.30384		1.01166	
	340	18	4	1.05106		3.24129		3.42167	
	341	18	4	3.99312		3.65459		2.86926	
	342	18	4	3.60743		0.16266		1.52145	
	343	18	4	3.08522		1.40026		2.84525	
	344	18	4	1.22759		0.69694		3.54142	
	345	18	4	0.67380		2.67169		3.54934	
	346	18	4	0.78574		2.38066		0.89264	
	347	18	4	3.67746		2.94787		1.46055	
	348	18	4	3.18760		3.11204		3.28578	
	349	18	4	0.31209		2.08311		2.21168	
	350	18	4	1.90658		4.20927		3.02361	
	351	18	4	0.68008		2.46991		1.39729	
	352	18	4	2.90058		0.12313		3.70181	
	353	18	4	2.68153		1.12019		3.65195	
	354	18	4	1.34683		3.62232		2.46287	
	355	18	4	3.10138		3.81502		0.80399	
	356	18	4	2.62835		3.01743		2.22285	
	357	18	4	2.02329		2.62081		1.88205	
	358	18	4	1.13982		4.04927		1.79403	
	359	18	4	3.05319		2.39428		3.35989	
	360	18	4	0.70476		0.05054		2.50672	
	361	18	4	2.88505		4.08460		1.05122	
	362	18	4	3.06042		3.45798		4.09968	
	363	18	4	2.13000		0.58890		3.92981	
	364	18	4	3.76750		0.61696		1.62917	
	365	18	4	0.31037		0.15655		2.54318	
	366	18	4	1.05588		0.05741		1.19190	
	367	18	4	2.34372		2.03576		2.92775	
	368	18	4	1.93039		3.66913		0.92334	
	369	18	4	3.13272		3.37470		2.51244	
	370	18	4	3.81014		3.81588		3.53337	
	371	18	4	1.45514		0.28311		2.90556	
	372	18	4	0.52041		3.87282		3.54186	
	373	18	4	2.57775		3.39491		3.53753	
	374	18	4	3.03334		1.37607		2.04886	
	375	18	4	0.25923		3.65483		1.75798	
	376	18	4	1.67954		0.44018		0.88412	
	377	18	4	2.97649		3.88264		1.45094	
	378	18	4	3.26335		4.19358		2.72978	
	429	19	9	4.16458		1.88638		2.29167	
	430	19	9	2.66514		3.94295		1.85428	
	431	19	9	2.50383		0.52513		0.79417	
	432	19	9	1.53311		1.76424		2.87660	
	433	19	9	2.47281		3.91542		3.75187	
	434	19	9	4.09478		1.95190		0.54865	
	435	19	9	1.39457		2.46878		0.74003	
	436	19	9	3.68820		2.73837		2.29324	
	437	19	9	2.28504		0.39360		3.09363	
	438	19	9	1.68463		2.40428		4.23083	
	439	19	9	1.01863		2.90111		1.34320	
	440	19	9	0.54397		0.38466		2.59974	
	441	19	9	0.73572		0.27164		3.86912	
	442	19	9	3.43651		3.71333		0.14980	
	443	19	9	3.61876		2.22990		0.77270	
	444	19	9	2.80267		1.33554		0.69904	
	445	19	9	2.36252		0.56395		1.25976	
	446	19	9	2.29642		3.63685		0.64782	
	447	19	9	1.99542		0.66870		2.85501	
	448	19	9	1.06108		1.02368		2.21084	
	449	19	9	1.65076		1.22419		2.94257	
	450	19	9	3.17022		2.31326		0.60147	
	451	19	9	0.11324		4.09786		2.97224	
	452	19	9	1.06625		0.25443		0.16921	
	453	19	9	2.40645		4.20568		2.74763	
	454	19	9	1.03389		1.92674		0.21321	
	455	19	9	0.67923		3.58293		3.04558	
	456	19	9	1.27384		3.07677		1.96001	
	457	19	9	1.35315		4.17807		0.10230	
	458	19	9	1.59067		0.51543		2.04334	
	459	19	9	1.48518		3.40231		3.93414	
	460	19	9	3.77690		0.30945		3.91120	
	461	19	9	1.67402		1.69144		1.12642	
	462	19	9	0.17874		0.78470		1.78090	
	463	19	9	3.18768		1.61406		1.88684	
	464	19	9	3.66728		0.57316		2.00809	
	465	19	9	3.50111		3.82690		0.79076	
	466	19	9	3.30841		4.17283		0.64560	
	467	19	9	0.75026		0.22071		4.19831	
	468	19	9	0.56815		0.76472		2.43859	
	469	19	9	4.16665		3.98616		2.59730	
	470	19	9	3.84888		3.01807		3.04519	
	471	19	9	2.26594		2.58196		0.39351	
	472	19	9	0.29573		4.24148		1.90016	
	473	19	9	1.86487		1.61825		0.09914	
	474	19	9	1.17781		1.67174		1.55598	
	475	19	9	2.68270		1.28418		1.54880	
	476	19	9	2.55501		2.40512		0.28266	
	477	19	9	1.67092		1.19850		0.96822	
	478	19	9	4.13450		2.66304		3.14735	
Bonds                                                                               
                                                                                    
	1	1	1	2
	2	1	2	3
	3	1	3	4
	4	1	4	5
	5	1	5	6
	6	1	6	7
	7	1	7	8
	8	1	8	9
	9	1	9	10
	10	1	10	11
	11	1	11	12
	12	1	12	13
	13	1	13	14
	14	1	14	15
	15	1	15	16
	16	1	16	17
	17	1	17	18
	18	1	18	19
	19	1	19	20
	20	1	21	22
	21	1	22	23
	22	1	23	24
	23	1	24	25
	24	1	25	26
	25	1	26	27
	26	1	27	28
	27	1	28	29
	28	1	29	30
	29	1	30	31
	30	1	31	32
	31	1	32	33
	32	1	33	34
	33	1	34	35
	34	1	35	36
	35	1	36	37
	36	1	37	38
	37	1	38	39
	38	1	39	40
	39	1	41	42
	40	1	42	43
	41	1	43	44
	42	1	44	45
	43	1	45	46
	44	1	46	47
	45	1	47	48
	46	1	48	49
	47	1	49	50
	48	1	50	51
	49	1	51	52
	50	1	52	53
	51	1	53	54
	52	1	54	55
	53	1	55	56
	54	1	56	57
	55	1	57	58
	56	1	58	59
	57	1	59	60
	58	1	61	62
	59	1	62	63
	60	1	63	64
	61	1	64	65
	62	1	65	66
	63	1	66	67
	64	1	67	68
	65	1	68	69
	66	1	69	70
	67	1	70	71
	68	1	71	72
	69	1	72	73
	70	1	73	74
	71	1	74	75
	72	1	75	76
	73	1	76	77
	74	1	77	78
	75	1	78	79
	76	1	79	80
	77	1	81	82
	78	1	82	83
	79	1	83	84
	80	1	84	85
	81	1	85	86
	82	1	86	87
	83	1	87	88
	84	1	88	89
	85	1	89	90
	86	1	90	91
	87	1	91	92
	88	1	92	93
	89	1	93	94
	90	1	94	95
	91	1	95	96
	92	1	96	97
	93	1	97	98
	94	1	98	99
	95	1	99	100
	96	1	101	102
	97	1	102	103
	98	1	103	104
	99	1	104	105
	100	1	105	106
	101	1	106	107
	102	1	107	108
	103	1	108	109
	104	1	109	110
	105	1	110	111
	106	1	111	112
	107	1	112	113
	108	1	113	114
	109	1	114	115
	110	1	115	116
	111	1	116	117
	112	1	117	118
	113	1	118	119
	114	1	119	120
	115	1	121	122
	116	1	122	123
	117	1	123	124
	118	1	124	125
	119	1	125	126
	120	1	126	127
	121	1	127	128
	122	1	128	129
	123	1	129	130
	124	1	130	131
	125	1	131	132
	126	1	132	133
	127	1	133	134
	128	1	134	135
	129	1	135	136
	130	1	136	137
	131	1	137	138
	132	1	138	139
	133	1	139	140
	134	1	141	142
	135	1	142	143
	136	1	143	144
	137	1	144	145
	138	1	145	146
	139	1	146	147
	140	1	147	148
	141	1	148	149
	142	1	149	150
	143	1	150	151
	144	1	151	152
	145	1	152	153
	146	1	153	154
	147	1	154	155
	148	1	155	156
	149	1	156	157
	150	1	157	158
	151	1	158	159
	152	1	159	160
	153	1	161	162
	154	1	162	163
	155	1	163	164
	156	1	164	165
	157	1	165	166
	158	1	166	167
	159	1	167	168
	160	1	168	169
	161	1	169	170
	162	1	170	171
	163	1	171	172
	164	1	172	173
	165	1	173	174
	166	1	174	175
	167	1	175	176
	168	1	176	177
	169	1	177	178
	170	1	178	179
	171	1	179	180
	172	1	181	182
	173	1	182	183
	174	1	183	184
	175	1	184	185
	176	1	185	186
	177	1	186	187
	178	1	187	188
	179	1	188	189
	180	1	189	190
	181	1	190	191
	182	1	191	192
	183	1	192	193
	184	1	193	194
	185	1	194	195
	186	1	195	196
	187	1	196	197
	188	1	197	198
	189	1	198	199
	190	1	199	200
	191	1	201	202
	192	1	202	203
	193	1	203	204
	194	1	204	205
	195	1	205	206
	196	1	206	207
	197	1	207	208
	198	1	208	209
	199	1	209	210
	200	1	210	211
	201	1	211	212
	202	1	212	213
	203	1	213	214
	204	1	214	215
	205	1	215	216
	206	1	216	217
	207	1	217	218
	208	1	218	219
	209	1	219	220
	210	1	221	222
	211	1	222	223
	212	1	223	224
	213	1	224	225
	214	1	225	226
	215	1	226	227
	216	1	227	228
	217	1	228	229
	218	1	229	230
	219	1	230	231
	220	1	231	232
	221	1	232	233
	222	1	233	234
	223	1	234	235
	224	1	235	236
	225	1	236	237
	226	1	237	238
	227	1	238	239
	228	1	239	240
	229	1	241	242
	230	1	242	243
	231	1	243	244
	232	1	244	245
	233	1	245	246
	234	1	246	247
	235	1	247	248
	236	1	248	249
	237	1	249	250
	238	1	250	251
	239	1	251	252
	240	1	252	253
	241	1	253	254
	242	1	254	255
	243	1	255	256
	244	1	256	257
	245	1	257	258
	246	1	258	259
	247	1	259	260
	248	1	261	262
	249	1	262	263
	250	1	263	264
	251	1	264	265
	252	1	265	266
	253	1	266	267
	254	1	267	268
	255	1	268	269
	256	1	269	270
	257	1	270	271
	258	1	271	272
	259	1	272	273
	260	1	273	274
	261	1	274	275
	262	1	275	276
	263	1	276	277
	264	1	277	278
	265	1	278	279
	266	1	279	280
	267	1	281	282
	268	1	282	283
	269	1	283	284
	270	1	284	285
	271	1	285	286
	272	1	286	287
	273	1	287	288
	274	1	288	289
	275	1	289	290
	276	1	290	291
	277	1	291	292
	278	1	292	293
	279	1	293	294
	280	1	294	295
	281	1	295	296
	282	1	296	297
	283	1	297	298
	284	1	298	299
	285	1	299	300
	286	1	162	301
	287	1	301	108
	288	1	5	302
	289	1	302	65
	290	1	128	303
	291	1	303	122
	292	1	11	304
	293	1	304	71
	294	1	68	305
	295	1	305	62
	296	1	218	311
	297	1	311	25
	298	1	222	312
	299	1	312	105
	300	1	254	313
	301	1	313	102
	302	1	243	314
	303	1	314	42
	304	1	11	315
	305	1	315	71
	306	1	248	316
	307	1	316	94
	308	1	255	317
	309	1	317	224
	310	1	256	318
	311	1	318	225
	312	1	194	319
	313	1	319	22
	314	1	188	320
	315	1	320	233
	316	1	60	321
	317	1	321	206
	318	1	250	322
	319	1	322	201
	320	1	154	323
	321	1	323	148
	322	1	68	324
	323	1	324	62
	324	1	40	325
	325	1	325	217
	326	1	91	326
	327	1	326	212
	328	1	205	327
	329	1	327	100
	330	1	5	328
	331	1	328	65
	332	1	174	329
	333	1	329	210
	334	1	221	330
	335	1	330	125
	336	1	108	331
	337	1	331	162
	338	1	209	332
	339	1	332	171
	340	1	246	333
	341	1	333	211
