#-----------------------------------------------------------------------------------           
# NANOPOLY - POLYMER NANOCOMPOSITE STRUCTURAL DATA FILE                                        
#-----------------------------------------------------------------------------------           
# FILENAME:  test_structure.in                                                                  
# DATE: 2020-10-27                                                                                
#-----------------------------------------------------------------------------------           
                                                                                               
5000 atoms                                                             
4995 bonds                                                             
                                                                                               
3 atom types                                            
1 bond types                                            
                                                                                    
0.0000 5.0500 xlo xhi            
0.0000 5.0500 ylo yhi            
0.0000 5.0500 zlo zhi            
                                                                                    
Masses                                                                              
                                                                                    
1	1.0
2	1.0
3	1.0


Atoms                                                                               

	1	0	1	3.64140		2.53636		1.36406	
	2	0	2	3.56998		2.45030		1.35463	
	3	0	3	3.51498		2.53102		1.29936	
	4	0	1	3.47188		2.57773		1.39186	
	5	0	2	3.56045		2.64658		1.38869	
	6	0	3	3.58246		2.64231		1.49866	
	7	0	1	3.61892		2.74822		1.49153	
	8	0	2	3.58486		2.71315		1.59256	
	9	0	3	3.67431		2.77778		1.61302	
	10	0	1	3.75424		2.80605		1.53948	
	11	0	2	3.76742		2.82942		1.43050	
	12	0	3	3.86027		2.76828		1.41508	
	13	0	1	3.90743		2.86992		1.42162	
	14	0	2	3.98835		2.85596		1.49812	
	15	0	3	4.09913		2.84763		1.51413	
	16	0	1	4.17125		2.76730		1.48345	
	17	0	2	4.26108		2.74653		1.54744	
	18	0	3	4.35773		2.69172		1.56327	
	19	0	1	4.42133		2.62982		1.49457	
	20	0	2	4.31997		2.66337		1.45998	
	21	0	3	4.39794		2.72632		1.40945	
	22	0	1	4.35301		2.82821		1.39540	
	23	0	2	4.26934		2.84584		1.46811	
	24	0	3	4.36178		2.80518		1.51708	
	25	0	1	4.35540		2.91498		1.49474	
	26	0	2	4.42760		2.98435		1.54545	
	27	0	3	4.50531		3.01191		1.46931	
	28	0	1	4.58984		3.08443		1.48315	
	29	0	2	4.62266		3.18050		1.53101	
	30	0	3	4.51399		3.19602		1.50761	
	31	0	1	4.53049		3.16772		1.40027	
	32	0	2	4.61350		3.23891		1.42554	
	33	0	3	4.68924		3.15639		1.43269	
	34	0	1	4.74548		3.20193		1.51848	
	35	0	2	4.82829		3.12617		1.51843	
	36	0	3	4.82383		3.05551		1.43135	
	37	0	1	4.90930		3.00971		1.48788	
	38	0	2	4.91653		2.89894		1.50441	
	39	0	3	4.85897		2.94853		1.58702	
	40	0	1	4.76586		3.00863		1.60474	
	41	0	2	4.65558		2.98778		1.60424	
	42	0	3	4.63509		3.09796		1.61031	
	43	0	1	4.73521		3.12274		1.65456	
	44	0	2	4.72696		3.23083		1.62548	
	45	0	3	4.79585		3.20549		1.71039	
	46	0	1	4.69015		3.23075		1.73843	
	47	0	2	4.71419		3.29134		1.82979	
	48	0	3	4.72443		3.35873		1.91895	
	49	0	1	4.81065		3.34078		1.98853	
	50	0	2	4.78893		3.38917		2.08743	
	51	0	3	4.74987		3.44354		2.17752	
	52	0	1	4.70229		3.37763		2.25490	
	53	0	2	4.79540		3.43418		2.28188	
	54	0	3	4.88878		3.48586		2.31661	
	55	0	1	4.86495		3.56268		2.23834	
	56	0	2	4.93912		3.62553		2.18225	
	57	0	3	4.94022		3.73723		2.19315	
	58	0	1	4.87833		3.82550		2.22439	
	59	0	2	4.80058		3.80037		2.14745	
	60	0	3	4.72505		3.84500		2.21745	
	61	0	1	4.79971		3.92351		2.24675	
	62	0	2	4.75126		4.02438		2.23814	
	63	0	3	4.79345		3.96260		2.15447	
	64	0	1	4.76763		3.97749		2.04627	
	65	0	2	4.67559		4.03265		2.07919	
	66	0	3	4.64007		4.03158		2.18565	
	67	0	1	4.66684		4.03992		2.29432	
	68	0	2	4.70449		4.14562		2.29693	
	69	0	3	4.74850		4.18618		2.20198	
	70	0	1	4.71017		4.22813		2.10519	
	71	0	2	4.61771		4.25628		2.16224	
	72	0	3	4.68045		4.34285		2.12811	
	73	0	1	4.72510		4.30557		2.22409	
	74	0	2	4.76154		4.41172		2.22400	
	75	0	3	4.81531		4.40000		2.32182	
	76	0	1	4.76857		4.47150		2.39462	
	77	0	2	4.81152		4.54162		2.47101	
	78	0	3	4.71883		4.60061		2.44807	
	79	0	1	4.66329		4.52417		2.50864	
	80	0	2	4.60423		4.61639		2.48408	
	81	0	3	4.54240		4.70912		2.49738	
	82	0	1	4.59192		4.70337		2.39682	
	83	0	2	4.64749		4.64807		2.31651	
	84	0	3	4.57565		4.57389		2.36048	
	85	0	1	4.51564		4.61426		2.27466	
	86	0	2	4.50698		4.53596		2.19472	
	87	0	3	4.60013		4.52076		2.25546	
	88	0	1	4.71223		4.51628		2.25263	
	89	0	2	4.69136		4.41744		2.30153	
	90	0	3	4.58255		4.43431		2.32323	
	91	0	1	4.47246		4.44577		2.34183	
	92	0	2	4.50306		4.34715		2.29786	
	93	0	3	4.48818		4.36101		2.40824	
	94	0	1	4.59009		4.31583		2.39517	
	95	0	2	4.61422		4.21756		2.44371	
	96	0	3	4.52079		4.16225		2.47215	
	97	0	1	4.55926		4.06811		2.51963	
	98	0	2	4.60718		4.03825		2.42263	
	99	0	3	4.53007		3.99662		2.35249	
	100	0	1	4.50175		3.91480		2.42391	
	101	0	2	4.41779		3.96257		2.36678	
	102	0	3	4.47042		3.98590		2.27043	
	103	0	1	4.41418		3.89129		2.29240	
	104	0	2	4.51465		3.85561		2.32747	
	105	0	3	4.49183		3.77510		2.40226	
	106	0	1	4.59211		3.74737		2.36017	
	107	0	2	4.55252		3.68467		2.44441	
	108	0	3	4.64652		3.70786		2.50116	
	109	0	1	4.68293		3.80424		2.54569	
	110	0	2	4.79025		3.83594		2.53710	
	111	0	3	4.84585		3.78745		2.45252	
	112	0	1	4.80840		3.73199		2.36242	
	113	0	2	4.72096		3.79075		2.32371	
	114	0	3	4.72111		3.73786		2.42270	
	115	0	1	4.79517		3.68058		2.48458	
	116	0	2	4.89227		3.63800		2.44775	
	117	0	3	4.94095		3.54095		2.47618	
	118	0	1	4.94445		3.44264		2.42216	
	119	0	2	4.98406		3.41398		2.52319	
	120	0	3	5.03639		3.31758		2.54698	
	121	0	1	0.08799		3.35372		2.51586	
	122	0	2	0.08570		3.46489		2.50067	
	123	0	3	0.03468		3.52601		2.57978	
	124	0	1	0.13221		3.55971		2.53566	
	125	0	2	0.16353		3.65948		2.49489	
	126	0	3	0.07555		3.65406		2.42541	
	127	0	1	0.01402		3.61150		2.50908	
	128	0	2	5.01768		3.67622		2.42996	
	129	0	3	5.00460		3.64975		2.32167	
	130	0	1	0.04486		3.60425		2.27289	
	131	0	2	0.10381		3.69973		2.27481	
	132	0	3	0.14375		3.63895		2.18934	
	133	0	1	0.20544		3.65324		2.28201	
	134	0	2	0.17439		3.55485		2.32619	
	135	0	3	0.16448		3.52262		2.21914	
	136	0	1	0.05455		3.50328		2.20737	
	137	0	2	0.09494		3.44856		2.11809	
	138	0	3	0.00553		3.38083		2.11438	
	139	0	1	5.02105		3.43374		2.20716	
	140	0	2	4.91194		3.41614		2.18762	
	141	0	3	4.89921		3.30771		2.16160	
	142	0	1	4.93352		3.25784		2.06709	
	143	0	2	5.01980		3.24970		1.99577	
	144	0	3	0.03719		3.16166		1.97834	
	145	0	1	0.10016		3.08123		1.93184	
	146	0	2	0.00927		3.01554		1.93619	
	147	0	3	5.02791		2.91839		1.88953	
	148	0	1	0.05414		2.86396		1.95136	
	149	0	2	0.08304		2.78600		1.87597	
	150	0	3	0.06793		2.67486		1.87217	
	151	0	1	5.01115		2.69179		1.90229	
	152	0	2	5.02182		2.58077		1.88977	
	153	0	3	0.06749		2.53947		1.93145	
	154	0	1	0.04514		2.61632		2.01013	
	155	0	2	0.02918		2.71543		2.06032	
	156	0	3	0.07988		2.81259		2.08454	
	157	0	1	0.12764		2.89082		2.01977	
	158	0	2	0.15592		2.94611		1.92629	
	159	0	3	0.20559		3.03321		1.87586	
	160	0	1	0.11472		3.01293		1.81319	
	161	0	2	0.07246		2.95589		1.72626	
	162	0	3	5.01917		2.94681		1.68331	
	163	0	1	5.03059		3.00470		1.58784	
	164	0	2	4.98003		3.10219		1.61103	
	165	0	3	4.90792		3.04924		1.67881	
	166	0	1	4.93238		3.07178		1.78600	
	167	0	2	4.90615		3.07938		1.89486	
	168	0	3	4.93833		2.97353		1.91375	
	169	0	1	4.85990		3.00668		1.84063	
	170	0	2	4.81749		2.94047		1.92071	
	171	0	3	4.90399		2.86906		1.91683	
	172	0	1	4.98153		2.79575		1.88204	
	173	0	2	4.91942		2.72164		1.82507	
	174	0	3	4.86065		2.70854		1.91979	
	175	0	1	4.77413		2.64024		1.89865	
	176	0	2	4.70537		2.61180		1.81464	
	177	0	3	4.68807		2.70000		1.88184	
	178	0	1	4.75542		2.71844		1.96971	
	179	0	2	4.82158		2.63609		2.00765	
	180	0	3	4.72606		2.64958		2.06502	
	181	0	1	4.61584		2.66550		2.05106	
	182	0	2	4.57275		2.67652		1.94802	
	183	0	3	4.64247		2.76231		1.96739	
	184	0	1	4.53225		2.76806		1.98778	
	185	0	2	4.47124		2.71401		2.06492	
	186	0	3	4.50895		2.61389		2.09884	
	187	0	1	4.46043		2.59714		2.19865	
	188	0	2	4.42350		2.62680		2.30040	
	189	0	3	4.50131		2.65234		2.37714	
	190	0	1	4.46956		2.71007		2.46800	
	191	0	2	4.53249		2.66320		2.54823	
	192	0	3	4.62229		2.59860		2.56721	
	193	0	1	4.60359		2.58629		2.45724	
	194	0	2	4.67306		2.67238		2.43833	
	195	0	3	4.64831		2.60295		2.35370	
	196	0	1	4.67501		2.66287		2.26263	
	197	0	2	4.73777		2.75577		2.26773	
	198	0	3	4.73257		2.72139		2.16101	
	199	0	1	4.67791		2.81804		2.17738	
	200	0	2	4.72545		2.86397		2.26808	
	201	0	3	4.82443		2.91371		2.28616	
	202	0	1	4.77141		2.99096		2.22436	
	203	0	2	4.70651		2.98622		2.13292	
	204	0	3	4.77269		3.02515		2.05105	
	205	0	1	4.85824		2.99927		2.11893	
	206	0	2	4.94587		3.06922		2.11392	
	207	0	3	4.90106		3.08545		2.01231	
	208	0	1	4.83736		3.17089		1.97711	
	209	0	2	4.74446		3.19868		1.92059	
	210	0	3	4.82832		3.23941		1.85810	
	211	0	1	4.83200		3.34753		1.82823	
	212	0	2	4.81242		3.30968		1.72440	
	213	0	3	4.79128		3.41990		1.72421	
	214	0	1	4.68617		3.45401		1.70461	
	215	0	2	4.69075		3.52236		1.79351	
	216	0	3	4.59927		3.51899		1.72858	
	217	0	1	4.49202		3.54773		1.74499	
	218	0	2	4.54263		3.63377		1.79630	
	219	0	3	4.61695		3.67339		1.72212	
	220	0	1	4.65354		3.75563		1.78916	
	221	0	2	4.68404		3.83640		1.71745	
	222	0	3	4.61065		3.91862		1.73867	
	223	0	1	4.52312		3.93887		1.67140	
	224	0	2	4.58131		4.00169		1.59885	
	225	0	3	4.68363		3.96384		1.57248	
	226	0	1	4.65329		3.85984		1.54317	
	227	0	2	4.73692		3.90132		1.48087	
	228	0	3	4.66546		3.86940		1.40043	
	229	0	1	4.65686		3.87719		1.28880	
	230	0	2	4.60428		3.83444		1.19933	
	231	0	3	4.65348		3.78157		1.11343	
	232	0	1	4.60544		3.86747		1.05949	
	233	0	2	4.68930		3.90756		0.99659	
	234	0	3	4.70907		4.01497		0.97076	
	235	0	1	4.78688		4.06352		0.90606	
	236	0	2	4.69348		4.12557		0.90123	
	237	0	3	4.73631		4.17082		0.80788	
	238	0	1	4.64440		4.10736		0.79683	
	239	0	2	4.64732		4.20900		0.84433	
	240	0	3	4.69617		4.24737		0.93781	
	241	0	1	4.78745		4.21105		0.99209	
	242	0	2	4.83608		4.30725		0.96084	
	243	0	3	4.85647		4.40274		1.01617	
	244	0	1	4.93121		4.48615		1.02351	
	245	0	2	4.96250		4.54954		1.11069	
	246	0	3	4.87077		4.53581		1.17389	
	247	0	1	4.93188		4.47469		1.24549	
	248	0	2	5.00127		4.40749		1.30265	
	249	0	3	0.04795		4.46385		1.31119	
	250	0	1	0.12879		4.53516		1.27997	
	251	0	2	0.06584		4.58305		1.35960	
	252	0	3	0.03697		4.67675		1.30498	
	253	0	1	0.00574		4.63395		1.20603	
	254	0	2	4.98908		4.69813		1.26954	
	255	0	3	4.87871		4.71018		1.25308	
	256	0	1	4.90328		4.77845		1.16746	
	257	0	2	4.91643		4.82365		1.26934	
	258	0	3	4.81793		4.82618		1.32308	
	259	0	1	4.74584		4.74020		1.32564	
	260	0	2	4.76087		4.70558		1.21994	
	261	0	3	4.78741		4.74435		1.11802	
	262	0	1	4.74269		4.81040		1.03907	
	263	0	2	4.84602		4.85104		1.05547	
	264	0	3	4.90105		4.89874		0.97008	
	265	0	1	4.99995		4.95020		0.95709	
	266	0	2	4.97255		5.00758		0.86461	
	267	0	3	5.00447		0.01456		0.95589	
	268	0	1	4.90448		0.02611		1.00554	
	269	0	2	4.96451		0.11613		0.97570	
	270	0	3	4.98229		0.16307		1.07608	
	271	0	1	4.88356		0.17711		1.02459	
	272	0	2	4.87026		0.08907		1.09290	
	273	0	3	4.78319		0.13747		1.14460	
	274	0	1	4.73866		0.19657		1.22899	
	275	0	2	4.77301		0.25033		1.32133	
	276	0	3	4.72469		0.15108		1.34165	
	277	0	1	4.72867		0.05253		1.39520	
	278	0	2	4.81837		5.03582		1.40519	
	279	0	3	4.85033		4.99351		1.50411	
	280	0	1	4.86242		4.89368		1.45426	
	281	0	2	4.77004		4.86485		1.51110	
	282	0	3	4.72655		4.89679		1.60951	
	283	0	1	4.82489		4.88485		1.66226	
	284	0	2	4.81430		4.92742		1.76557	
	285	0	3	4.79169		5.01780		1.70299	
	286	0	1	4.85233		5.04760		1.79261	
	287	0	2	4.76233		0.06283		1.77705	
	288	0	3	4.72558		0.09088		1.87932	
	289	0	1	4.61425		0.08128		1.88981	
	290	0	2	4.58662		5.02271		1.88315	
	291	0	3	4.53603		0.04235		1.95517	
	292	0	1	4.42537		0.03091		1.97001	
	293	0	2	4.35978		0.10799		2.01852	
	294	0	3	4.46131		0.14106		1.98395	
	295	0	1	4.43444		0.24216		2.02459	
	296	0	2	4.47339		0.21345		2.12586	
	297	0	3	4.50946		0.29338		2.19591	
	298	0	1	4.58318		0.23676		2.25882	
	299	0	2	4.63587		0.33440		2.27575	
	300	0	3	4.66029		0.28774		2.17664	
	301	0	1	4.76021		0.26493		2.13091	
	302	0	2	4.86244		0.30429		2.10648	
	303	0	3	4.94125		0.23808		2.15123	
	304	0	1	4.96768		0.17879		2.24278	
	305	0	2	5.00315		0.14004		2.14360	
	306	0	3	5.01483		0.14387		2.03204	
	307	0	1	4.92238		0.08116		2.02118	
	308	0	2	4.93162		5.01988		2.03251	
	309	0	3	4.96280		4.91406		2.05313	
	310	0	1	5.02386		4.89033		1.96200	
	311	0	2	0.03807		4.89774		1.87024	
	312	0	3	0.11199		4.85990		1.79474	
	313	0	1	0.11581		4.91792		1.69874	
	314	0	2	0.13084		4.98369		1.60905	
	315	0	3	0.10955		0.02134		1.54227	
	316	0	1	0.21584		0.02045		1.57829	
	317	0	2	0.16453		0.08805		1.65173	
	318	0	3	0.11092		0.03350		1.73387	
	319	0	1	0.05280		0.00487		1.64222	
	320	0	2	5.00020		5.01139		1.62889	
	321	0	3	4.99731		0.00066		1.52379	
	322	0	1	4.95684		0.09738		1.48374	
	323	0	2	4.97336		0.03850		1.38963	
	324	0	3	5.02425		0.00137		1.29674	
	325	0	1	0.02932		4.98996		1.22063	
	326	0	2	5.04550		4.90298		1.28298	
	327	0	3	5.00844		4.92642		1.38629	
	328	0	1	0.05080		4.86564		1.36701	
	329	0	2	0.10543		4.83269		1.27467	
	330	0	3	0.18589		4.80871		1.20019	
	331	0	1	0.25366		4.74834		1.26622	
	332	0	2	0.25842		4.84380		1.32505	
	333	0	3	0.18113		4.76934		1.35789	
	334	0	1	0.13663		4.67508		1.31628	
	335	0	2	0.13957		4.68650		1.20467	
	336	0	3	0.24341		4.65295		1.17841	
	337	0	1	0.19087		4.59514		1.09782	
	338	0	2	0.26234		4.54773		1.02543	
	339	0	3	0.35175		4.48289		1.00544	
	340	0	1	0.44248		4.54784		1.01745	
	341	0	2	0.52906		4.49124		0.97390	
	342	0	3	0.49728		4.50018		0.86663	
	343	0	1	0.46096		4.54537		0.77054	
	344	0	2	0.42387		4.63769		0.82249	
	345	0	3	0.52850		4.66783		0.79524	
	346	0	1	0.45466		4.67305		0.71087	
	347	0	2	0.55095		4.73066		0.71367	
	348	0	3	0.65461		4.76674		0.69026	
	349	0	1	0.75721		4.79176		0.65225	
	350	0	2	0.77688		4.89736		0.61973	
	351	0	3	0.81645		4.99369		0.57788	
	352	0	1	0.91482		5.04725		0.58502	
	353	0	2	0.95815		0.07461		0.51620	
	354	0	3	1.01790		0.05260		0.60863	
	355	0	1	0.91940		0.10440		0.62316	
	356	0	2	0.88028		0.18406		0.69187	
	357	0	3	0.89054		0.18620		0.80362	
	358	0	1	0.98212		0.22254		0.74985	
	359	0	2	0.99696		0.30345		0.82621	
	360	0	3	1.03881		0.33323		0.72642	
	361	0	1	1.10220		0.24223		0.74364	
	362	0	2	1.05130		0.19587		0.65501	
	363	0	3	1.01243		0.18068		0.55082	
	364	0	1	1.12458		0.18213		0.54690	
	365	0	2	1.12800		0.09802		0.62114	
	366	0	3	1.09106		5.04822		0.65678	
	367	0	1	1.01347		0.00067		0.73784	
	368	0	2	1.08573		4.96482		0.74027	
	369	0	3	1.06861		4.85444		0.75124	
	370	0	1	1.09619		4.86248		0.64275	
	371	0	2	1.06566		4.86247		0.53475	
	372	0	3	1.04653		4.96996		0.56077	
	373	0	1	1.05572		5.04277		0.47586	
	374	0	2	1.15878		5.01513		0.51066	
	375	0	3	1.25362		4.95749		0.52739	
	376	0	1	1.28300		4.92575		0.63095	
	377	0	2	1.17414		4.94699		0.61378	
	378	0	3	1.16993		4.84157		0.57552	
	379	0	1	1.20720		4.82328		0.47124	
	380	0	2	1.29415		4.84106		0.53994	
	381	0	3	1.38408		4.82291		0.60459	
	382	0	1	1.46303		4.87024		0.66880	
	383	0	2	1.53086		4.78730		0.63537	
	384	0	3	1.52415		4.82228		0.74181	
	385	0	1	1.63124		4.78871		0.74075	
	386	0	2	1.72182		4.72383		0.72723	
	387	0	3	1.67262		4.64567		0.79099	
	388	0	1	1.74477		4.56585		0.75906	
	389	0	2	1.71338		4.47219		0.70578	
	390	0	3	1.80247		4.41098		0.73597	
	391	0	1	1.87038		4.35713		0.80729	
	392	0	2	1.77155		4.37514		0.85734	
	393	0	3	1.69057		4.29793		0.86615	
	394	0	1	1.79232		4.25109		0.85909	
	395	0	2	1.85371		4.18431		0.79300	
	396	0	3	1.91057		4.14576		0.88176	
	397	0	1	1.92310		4.25136		0.84587	
	398	0	2	1.99815		4.25481		0.76249	
	399	0	3	1.99974		4.19836		0.66549	
	400	0	1	2.10355		4.16067		0.64553	
	401	0	2	2.09224		4.24999		0.57852	
	402	0	3	2.12959		4.28232		0.47774	
	403	0	1	2.16213		4.38880		0.49189	
	404	0	2	2.16968		4.33559		0.59042	
	405	0	3	2.20962		4.33032		0.69518	
	406	0	1	2.15112		4.27230		0.77139	
	407	0	2	2.25407		4.22816		0.76431	
	408	0	3	2.26049		4.14114		0.69372	
	409	0	1	2.29996		4.10278		0.59591	
	410	0	2	2.19548		4.06870		0.61873	
	411	0	3	2.24237		4.01562		0.70580	
	412	0	1	2.33875		4.07314		0.70641	
	413	0	2	2.33653		4.16226		0.77459	
	414	0	3	2.39486		4.20043		0.68663	
	415	0	1	2.44168		4.20720		0.58485	
	416	0	2	2.52108		4.16643		0.51681	
	417	0	3	2.50641		4.24901		0.44223	
	418	0	1	2.44048		4.30077		0.51686	
	419	0	2	2.52492		4.35496		0.56714	
	420	0	3	2.51252		4.28366		0.65292	
	421	0	1	2.48414		4.26519		0.75993	
	422	0	2	2.47279		4.37448		0.73702	
	423	0	3	2.49413		4.37403		0.84720	
	424	0	1	2.39130		4.32986		0.85570	
	425	0	2	2.39226		4.36433		0.96251	
	426	0	3	2.45495		4.31291		1.04011	
	427	0	1	2.38162		4.23691		1.07809	
	428	0	2	2.28822		4.17533		1.08713	
	429	0	3	2.25470		4.21220		0.98657	
	430	0	1	2.21728		4.11163		1.01944	
	431	0	2	2.20787		4.10522		0.90778	
	432	0	3	2.11679		4.14246		0.96177	
	433	0	1	2.05710		4.04755		0.96673	
	434	0	2	2.06953		4.03063		1.07698	
	435	0	3	2.04756		3.92157		1.09181	
	436	0	1	2.00104		3.84740		1.16204	
	437	0	2	2.08186		3.87490		1.23489	
	438	0	3	2.11579		3.83207		1.33293	
	439	0	1	2.05492		3.77186		1.40549	
	440	0	2	2.04426		3.66903		1.36177	
	441	0	3	2.09495		3.56954		1.37307	
	442	0	1	1.98566		3.56759		1.34757	
	443	0	2	2.04623		3.49233		1.29043	
	444	0	3	1.94367		3.48541		1.24538	
	445	0	1	1.90299		3.38096		1.25094	
	446	0	2	1.99807		3.32678		1.27585	
	447	0	3	2.00346		3.28999		1.38175	
	448	0	1	1.94568		3.19627		1.36000	
	449	0	2	1.94309		3.18989		1.47202	
	450	0	3	1.89662		3.16843		1.57190	
	451	0	1	1.90429		3.07556		1.63446	
	452	0	2	1.87658		2.97397		1.67329	
	453	0	3	1.82414		2.93724		1.76547	
	454	0	1	1.92776		2.97728		1.78149	
	455	0	2	1.91059		3.05595		1.85968	
	456	0	3	2.01226		3.01146		1.84292	
	457	0	1	1.98388		3.02723		1.95036	
	458	0	2	1.93431		3.12691		1.96467	
	459	0	3	1.83760		3.09298		2.01042	
	460	0	1	1.84951		3.14168		2.11083	
	461	0	2	1.84974		3.23450		2.17392	
	462	0	3	1.91141		3.23501		2.26769	
	463	0	1	1.94422		3.21425		2.37299	
	464	0	2	1.92484		3.10383		2.37833	
	465	0	3	2.01418		3.15258		2.33102	
	466	0	1	2.02613		3.26375		2.32132	
	467	0	2	2.10249		3.20935		2.38302	
	468	0	3	2.18384		3.13738		2.41129	
	469	0	1	2.19363		3.02948		2.38199	
	470	0	2	2.19668		2.93531		2.44298	
	471	0	3	2.23272		2.95541		2.54734	
	472	0	1	2.30238		2.88411		2.49577	
	473	0	2	2.29917		2.80401		2.41722	
	474	0	3	2.33949		2.82671		2.31497	
	475	0	1	2.38271		2.78621		2.21964	
	476	0	2	2.41556		2.80544		2.11406	
	477	0	3	2.52759		2.81179		2.11155	
	478	0	1	2.49592		2.72693		2.04527	
	479	0	2	2.60618		2.71820		2.02621	
	480	0	3	2.71363		2.68702		2.01737	
	481	0	1	2.77769		2.77879		2.00891	
	482	0	2	2.76110		2.88365		2.04532	
	483	0	3	2.67799		2.92498		1.98222	
	484	0	1	2.59518		2.86826		2.03245	
	485	0	2	2.54781		2.96770		2.05399	
	486	0	3	2.50350		3.07073		2.04954	
	487	0	1	2.40583		3.11415		2.01531	
	488	0	2	2.47993		3.13626		1.93397	
	489	0	3	2.40471		3.17882		1.86237	
	490	0	1	2.31065		3.19409		1.80306	
	491	0	2	2.35503		3.12904		1.72308	
	492	0	3	2.30847		3.08635		1.63032	
	493	0	1	2.20956		3.09871		1.68191	
	494	0	2	2.14033		3.12834		1.76512	
	495	0	3	2.12049		3.06997		1.85891	
	496	0	1	2.20353		3.14533		1.86358	
	497	0	2	2.20995		3.04559		1.91465	
	498	0	3	2.14027		2.95986		1.93439	
	499	0	1	2.22509		2.90551		1.88491	
	500	0	2	2.32184		2.89455		1.82910	
	501	0	3	2.26354		2.92601		1.73850	
	502	0	1	2.22201		2.93687		1.63480	
	503	0	2	2.14969		2.97603		1.71117	
	504	0	3	2.09605		3.06080		1.66084	
	505	0	1	2.06513		3.16618		1.63771	
	506	0	2	1.99816		3.12315		1.71683	
	507	0	3	2.00683		3.23201		1.74273	
	508	0	1	1.96283		3.32003		1.79670	
	509	0	2	1.87535		3.37651		1.75482	
	510	0	3	1.91505		3.33063		1.66039	
	511	0	1	2.01295		3.37862		1.68700	
	512	0	2	2.01087		3.48050		1.63996	
	513	0	3	1.92124		3.45827		1.57617	
	514	0	1	1.83101		3.51879		1.60431	
	515	0	2	1.73424		3.46947		1.63261	
	516	0	3	1.63027		3.51117		1.62574	
	517	0	1	1.54038		3.56267		1.66892	
	518	0	2	1.53689		3.55110		1.78050	
	519	0	3	1.54482		3.53244		1.89089	
	520	0	1	1.65581		3.53787		1.87514	
	521	0	2	1.71897		3.62410		1.90938	
	522	0	3	1.78938		3.67882		1.84124	
	523	0	1	1.67957		3.68589		1.81916	
	524	0	2	1.67755		3.62073		1.72780	
	525	0	3	1.72773		3.58680		1.63332	
	526	0	1	1.76739		3.67540		1.57700	
	527	0	2	1.73725		3.76838		1.63216	
	528	0	3	1.66707		3.73895		1.54967	
	529	0	1	1.74560		3.73058		1.46992	
	530	0	2	1.78431		3.63437		1.42702	
	531	0	3	1.73611		3.70341		1.35282	
	532	0	1	1.69890		3.80910		1.34637	
	533	0	2	1.65109		3.90019		1.39125	
	534	0	3	1.63518		3.84746		1.48905	
	535	0	1	1.67340		3.89219		1.58462	
	536	0	2	1.73370		3.98684		1.58613	
	537	0	3	1.80935		4.02393		1.66027	
	538	0	1	1.72128		4.03195		1.72937	
	539	0	2	1.63352		3.98251		1.77886	
	540	0	3	1.71233		4.00390		1.85585	
	541	0	1	1.65449		3.95842		1.94060	
	542	0	2	1.67518		4.04145		2.01322	
	543	0	3	1.76957		4.05895		2.07136	
	544	0	1	1.74719		4.03410		2.17849	
	545	0	2	1.67305		3.95021		2.18645	
	546	0	3	1.71008		3.85399		2.23080	
	547	0	1	1.70028		3.93269		2.31021	
	548	0	2	1.78435		3.88065		2.36332	
	549	0	3	1.88044		3.84113		2.40576	
	550	0	1	1.90781		3.93853		2.45434	
	551	0	2	2.01473		3.97215		2.44843	
	552	0	3	2.08414		4.01442		2.52584	
	553	0	1	1.98121		4.05398		2.50493	
	554	0	2	1.88435		4.11005		2.51324	
	555	0	3	1.84711		4.21494		2.52768	
	556	0	1	1.73780		4.19340		2.51413	
	557	0	2	1.72722		4.29388		2.56300	
	558	0	3	1.74007		4.32220		2.45516	
	559	0	1	1.76211		4.40038		2.37772	
	560	0	2	1.82609		4.48793		2.34877	
	561	0	3	1.86542		4.39709		2.40166	
	562	0	1	1.89476		4.37903		2.50848	
	563	0	2	1.80651		4.40108		2.57422	
	564	0	3	1.78652		4.51009		2.55654	
	565	0	1	1.73461		4.45679		2.64057	
	566	0	2	1.67049		4.50635		2.71821	
	567	0	3	1.63125		4.41965		2.65871	
	568	0	1	1.57138		4.43643		2.75215	
	569	0	2	1.55727		4.50383		2.66353	
	570	0	3	1.57819		4.61378		2.67199	
	571	0	1	1.47537		4.62983		2.71402	
	572	0	2	1.43367		4.53096		2.74691	
	573	0	3	1.42067		4.59107		2.84080	
	574	0	1	1.45972		4.51511		2.91362	
	575	0	2	1.53170		4.45982		2.84759	
	576	0	3	1.42184		4.43699		2.84983	
	577	0	1	1.32299		4.41443		2.80169	
	578	0	2	1.32296		4.45523		2.90624	
	579	0	3	1.24372		4.41918		2.97708	
	580	0	1	1.22692		4.34497		2.89458	
	581	0	2	1.16711		4.37026		2.80304	
	582	0	3	1.07910		4.30966		2.76873	
	583	0	1	0.98099		4.33411		2.72001	
	584	0	2	1.07857		4.34788		2.66630	
	585	0	3	1.08527		4.33817		2.55468	
	586	0	1	1.17716		4.30721		2.61119	
	587	0	2	1.16950		4.41540		2.58237	
	588	0	3	1.23461		4.46807		2.65709	
	589	0	1	1.28890		4.55846		2.69553	
	590	0	2	1.32183		4.65410		2.74416	
	591	0	3	1.23238		4.70956		2.70517	
	592	0	1	1.13007		4.74934		2.68179	
	593	0	2	1.02590		4.73651		2.72154	
	594	0	3	0.93176		4.67540		2.72117	
	595	0	1	0.90216		4.65160		2.61556	
	596	0	2	0.99191		4.71853		2.60772	
	597	0	3	1.02594		4.70025		2.50235	
	598	0	1	1.08375		4.66568		2.59212	
	599	0	2	0.99279		4.61682		2.54812	
	600	0	3	1.00676		4.50547		2.54986	
	601	0	1	1.05112		4.57496		2.62602	
	602	0	2	1.07327		4.47947		2.68067	
	603	0	3	0.99906		4.46630		2.76384	
	604	0	1	0.98415		4.57498		2.78755	
	605	0	2	1.03369		4.51143		2.86568	
	606	0	3	1.09924		4.56296		2.79054	
	607	0	1	1.19091		4.50328		2.76542	
	608	0	2	1.09797		4.45719		2.80825	
	609	0	3	1.03269		4.37407		2.84599	
	610	0	1	0.99461		4.30097		2.92217	
	611	0	2	0.95582		4.22387		2.99392	
	612	0	3	1.05446		4.17818		3.02185	
	613	0	1	0.98089		4.13404		3.09420	
	614	0	2	1.02674		4.21263		3.15990	
	615	0	3	1.02706		4.26970		3.25655	
	616	0	1	0.97976		4.21632		3.34321	
	617	0	2	0.90014		4.14121		3.31839	
	618	0	3	0.87115		4.03350		3.30591	
	619	0	1	0.91663		4.04575		3.20404	
	620	0	2	0.99858		3.97108		3.22146	
	621	0	3	1.03017		4.07782		3.20718	
	622	0	1	1.05407		4.04843		3.31283	
	623	0	2	1.06517		4.15433		3.34832	
	624	0	3	1.16664		4.12454		3.38590	
	625	0	1	1.18031		4.23322		3.36141	
	626	0	2	1.22284		4.30983		3.43154	
	627	0	3	1.18548		4.34556		3.53116	
	628	0	1	1.10632		4.40859		3.48261	
	629	0	2	1.05274		4.48010		3.41469	
	630	0	3	0.99686		4.40028		3.35899	
	631	0	1	0.99094		4.45769		3.26273	
	632	0	2	0.95677		4.49849		3.36155	
	633	0	3	0.86228		4.44371		3.38737	
	634	0	1	0.79809		4.52230		3.43534	
	635	0	2	0.71517		4.48529		3.36937	
	636	0	3	0.80641		4.49810		3.30529	
	637	0	1	0.80595		4.38653		3.31751	
	638	0	2	0.88108		4.33552		3.25156	
	639	0	3	0.83595		4.38504		3.16152	
	640	0	1	0.81310		4.27534		3.16782	
	641	0	2	0.84697		4.32331		3.07217	
	642	0	3	0.75902		4.39124		3.08785	
	643	0	1	0.80102		4.48162		3.03623	
	644	0	2	0.76720		4.54822		3.12000	
	645	0	3	0.65829		4.56812		3.10158	
	646	0	1	0.64513		4.61886		3.00234	
	647	0	2	0.66375		4.63801		2.89333	
	648	0	3	0.56230		4.60927		2.93179	
	649	0	1	0.52436		4.67669		3.01311	
	650	0	2	0.43280		4.74144		3.00872	
	651	0	3	0.53639		4.78461		3.00756	
	652	0	1	0.63960		4.82841		3.00232	
	653	0	2	0.58263		4.79782		2.91058	
	654	0	3	0.55656		4.76266		2.80723	
	655	0	1	0.53487		4.65690		2.83791	
	656	0	2	0.45377		4.73365		2.82654	
	657	0	3	0.44239		4.84501		2.81841	
	658	0	1	0.38683		4.84194		2.72095	
	659	0	2	0.41831		4.93750		2.67122	
	660	0	3	0.44705		4.91253		2.56564	
	661	0	1	0.51823		4.96093		2.49361	
	662	0	2	0.49032		0.01918		2.48359	
	663	0	3	0.57410		5.01683		2.43031	
	664	0	1	0.52923		5.00960		2.32769	
	665	0	2	0.50079		0.06319		2.36020	
	666	0	3	0.60034		0.11160		2.37870	
	667	0	1	0.53278		0.14785		2.29674	
	668	0	2	0.56881		0.10219		2.20076	
	669	0	3	0.60569		0.00119		2.16859	
	670	0	1	0.58399		4.94994		2.12529	
	671	0	2	0.69066		4.91526		2.12910	
	672	0	3	0.72897		4.96973		2.03875	
	673	0	1	0.81203		5.00476		1.97190	
	674	0	2	0.84343		5.04634		2.07130	
	675	0	3	0.85349		5.02367		2.18076	
	676	0	1	0.92677		4.96415		2.12005	
	677	0	2	0.81655		4.94715		2.10738	
	678	0	3	0.79872		4.83874		2.08445	
	679	0	1	0.76372		4.79412		2.18130	
	680	0	2	0.81986		4.80669		2.27767	
	681	0	3	0.70913		4.79045		2.28613	
	682	0	1	0.76729		4.72930		2.36013	
	683	0	2	0.70281		4.67038		2.43060	
	684	0	3	0.60123		4.63554		2.46324	
	685	0	1	0.54896		4.69490		2.54288	
	686	0	2	0.64694		4.74910		2.55056	
	687	0	3	0.75438		4.78015		2.56000	
	688	0	1	0.84457		4.73513		2.51065	
	689	0	2	0.87878		4.62824		2.51211	
	690	0	3	0.79571		4.60645		2.58436	
	691	0	1	0.81014		4.70519		2.63572	
	692	0	2	0.69849		4.70159		2.62492	
	693	0	3	0.72963		4.80122		2.66616	
	694	0	1	0.70277		4.89587		2.61217	
	695	0	2	0.66972		5.00305		2.60787	
	696	0	3	0.74210		4.99230		2.52276	
	697	0	1	0.80932		4.96143		2.43836	
	698	0	2	0.90287		5.01527		2.46913	
	699	0	3	0.88332		0.07553		2.46160	
	700	0	1	0.88651		0.18761		2.45662	
	701	0	2	0.79693		0.15895		2.51787	
	702	0	3	0.80146		0.25228		2.58005	
	703	0	1	0.83945		0.35492		2.55521	
	704	0	2	0.77212		0.34338		2.46616	
	705	0	3	0.75884		0.45186		2.44060	
	706	0	1	0.82193		0.45680		2.34790	
	707	0	2	0.74911		0.54214		2.35108	
	708	0	3	0.67884		0.61015		2.40615	
	709	0	1	0.67323		0.67390		2.31395	
	710	0	2	0.67306		0.62347		2.21369	
	711	0	3	0.61925		0.52514		2.21935	
	712	0	1	0.51696		0.47896		2.21828	
	713	0	2	0.47153		0.41315		2.29703	
	714	0	3	0.46391		0.34409		2.20888	
	715	0	1	0.48690		0.24779		2.26173	
	716	0	2	0.47293		0.22820		2.37136	
	717	0	3	0.54091		0.31693		2.36126	
	718	0	1	0.62217		0.32392		2.28417	
	719	0	2	0.61238		0.22416		2.33466	
	720	0	3	0.69680		0.17198		2.38708	
	721	0	1	0.80839		0.17380		2.37523	
	722	0	2	0.88919		0.12470		2.31477	
	723	0	3	0.95900		0.04423		2.27943	
	724	0	1	0.99977		0.14763		2.26387	
	725	0	2	0.90214		0.14002		2.20904	
	726	0	3	0.86697		0.24612		2.19900	
	727	0	1	0.95063		0.26693		2.12713	
	728	0	2	0.97542		0.23864		2.02138	
	729	0	3	0.87160		0.24600		2.06338	
	730	0	1	0.89779		0.31175		1.97628	
	731	0	2	0.85624		0.36184		2.06772	
	732	0	3	0.92317		0.40812		1.99043	
	733	0	1	0.92501		0.51919		2.00643	
	734	0	2	0.86526		0.61256		1.98888	
	735	0	3	0.83799		0.72106		1.97991	
	736	0	1	0.81249		0.81942		1.93223	
	737	0	2	0.90984		0.76848		1.90935	
	738	0	3	1.01087		0.73178		1.87704	
	739	0	1	1.08051		0.77870		1.80258	
	740	0	2	1.09819		0.68165		1.74905	
	741	0	3	1.16367		0.76413		1.71026	
	742	0	1	1.22633		0.85719		1.70705	
	743	0	2	1.19936		0.92058		1.61844	
	744	0	3	1.11104		0.95457		1.67879	
	745	0	1	1.02767		0.92975		1.74971	
	746	0	2	0.96375		0.83793		1.74079	
	747	0	3	0.88560		0.91849		1.74096	
	748	0	1	0.79957		0.94678		1.67467	
	749	0	2	0.87667		0.95859		1.59397	
	750	0	3	0.97952		1.00180		1.58168	
	751	0	1	0.99080		1.11325		1.57468	
	752	0	2	1.02550		1.08885		1.47078	
	753	0	3	0.91981		1.06920		1.43852	
	754	0	1	0.87144		1.08247		1.33811	
	755	0	2	0.76399		1.06898		1.36759	
	756	0	3	0.79846		0.99679		1.28886	
	757	0	1	0.87738		0.95745		1.21943	
	758	0	2	0.80897		0.88918		1.27648	
	759	0	3	0.72984		0.91134		1.35293	
	760	0	1	0.75622		0.89554		1.46087	
	761	0	2	0.77358		1.00436		1.48216	
	762	0	3	0.66578		1.03535		1.48617	
	763	0	1	0.63325		1.03168		1.37881	
	764	0	2	0.63189		1.14388		1.38098	
	765	0	3	0.74124		1.16241		1.39818	
	766	0	1	0.74643		1.21938		1.49474	
	767	0	2	0.77140		1.26449		1.59442	
	768	0	3	0.74030		1.32014		1.68679	
	769	0	1	0.72467		1.34354		1.79544	
	770	0	2	0.64643		1.26413		1.80847	
	771	0	3	0.54360		1.28556		1.84801	
	772	0	1	0.57072		1.33915		1.94281	
	773	0	2	0.63275		1.42953		1.91870	
	774	0	3	0.70207		1.38049		1.99209	
	775	0	1	0.78071		1.44608		2.03802	
	776	0	2	0.76358		1.49659		2.13678	
	777	0	3	0.81226		1.54604		2.04856	
	778	0	1	0.73645		1.62771		2.06193	
	779	0	2	0.70575		1.73457		2.07730	
	780	0	3	0.64543		1.74092		2.17173	
	781	0	1	0.60062		1.63949		2.15440	
	782	0	2	0.57560		1.55995		2.22952	
	783	0	3	0.63004		1.54236		2.13297	
	784	0	1	0.58800		1.54651		2.02899	
	785	0	2	0.51825		1.63293		2.01279	
	786	0	3	0.42387		1.68780		2.03886	
	787	0	1	0.31870		1.71433		2.01000	
	788	0	2	0.31780		1.82310		1.98233	
	789	0	3	0.26962		1.90892		1.92839	
	790	0	1	0.38183		1.91026		1.92978	
	791	0	2	0.39859		1.99847		1.99712	
	792	0	3	0.43211		2.08789		2.05608	