#-----------------------------------------------------------------------------------           
# NANOPOLY - POLYMER NANOCOMPOSITE STRUCTURAL DATA FILE                                        
#-----------------------------------------------------------------------------------           
# FILENAME:  test_structure.in                                                                  
# DATE: 2020-10-07                                                                                
#-----------------------------------------------------------------------------------           
                                                                                               
510 atoms                                                                          
515 bonds    
                                                                                               
4 atom types                                            
1 bond types                                            
                                                                                    
0.0000 20.0000 xlo xhi            
0.0000 20.0000 ylo yhi            
0.0000 20.0000 zlo zhi            
                                                                                    
Masses                                                                              
                                                                                    
1	1.0
2	1.0
3	1.0
4	3.0


Atoms                                                                               

	1	0	1	16.50251		12.14599		17.62179	
	2	0	2	17.35172		11.41298		17.58734	
	3	0	3	16.23089		11.38267		17.53759	
	4	0	1	15.71726		11.23550		16.55059	
	5	0	2	16.77132		11.42386		16.21424	
	6	0	3	16.46171		10.35470		16.07042	
	7	0	1	17.10358		9.81349		15.32561	
	8	0	2	18.12882		9.72645		15.77389	
	9	0	3	18.29800		10.74356		16.21719	
	10	0	1	18.59293		10.88631		17.29063	
	11	0	2	17.97010		10.64755		18.19325	
	12	0	3	18.40649		10.39816		19.19675	
	13	0	1	17.63137		11.10204		18.79255	
	14	0	2	18.60193		11.30107		19.31985	
	15	0	3	18.38894		11.75747		0.32284	
	16	0	1	18.71721		10.70901		0.09346	
	17	0	2	17.70034		10.53574		0.53573	
	18	0	3	16.83475		10.36773		1.23011	
	19	0	1	16.02355		9.69455		1.61539	
	20	0	2	16.36221		9.55499		0.55450	
	21	0	3	16.16455		9.65782		19.45450	
	22	0	1	17.17681		10.14238		19.46788	
	23	0	2	17.71261		9.38236		0.09631	
	24	0	3	18.81117		9.29852		0.31027	
	25	0	1	19.42777		8.85019		1.13395	
	26	0	2	18.85089		8.14565		0.47784	
	27	0	3	18.43148		8.05540		1.51495	
	28	0	1	19.26532		8.75206		1.79607	
	29	0	2	0.31515		9.14767		1.82772	
	30	0	3	0.86050		9.73515		2.61328	
	31	0	1	19.93527		10.29740		2.90902	
	32	0	2	19.98294		9.23118		3.25621	
	33	0	3	19.60846		9.42275		2.21567	
	34	0	1	0.05296		8.40416		2.37236	
	35	0	2	0.82499		8.71374		3.12587	
	36	0	3	1.85229		8.26200		3.14069	
	37	0	1	2.41262		7.49712		2.54016	
	38	0	2	1.78697		6.85276		3.21323	
	39	0	3	1.85159		7.92108		3.55112	
	40	0	1	0.97040		8.54946		3.84823	
	41	0	2	0.42888		9.05705		4.69011	
	42	0	3	0.05406		8.24035		5.36254	
	43	0	1	0.19591		7.15361		5.12064	
	44	0	2	0.75286		7.18456		4.14674	
	45	0	3	0.26315		7.91942		4.83943	
	46	0	1	0.75656		7.46049		5.73696	
	47	0	2	0.96556		8.09794		6.63676	
	48	0	3	1.26212		9.03955		6.10283	
	49	0	1	1.21821		8.69336		7.16955	
	50	0	2	1.45938		9.34133		8.05364	
	51	0	3	2.34765		8.95626		7.48588	
	52	0	1	1.89209		9.46730		6.59653	
	53	0	2	1.04227		9.81674		5.95206	
	54	0	3	0.77467		9.32314		4.98025	
	55	0	1	0.70867		8.73814		5.93580	
	56	0	2	1.29481		8.67738		4.98060	
	57	0	3	2.00776		9.11624		4.23310	
	58	0	1	2.95949		8.73073		3.78006	
	59	0	2	3.35492		8.56474		2.74288	
	60	0	3	3.97784		7.99482		3.48234	
	61	0	1	3.46292		8.57519		4.29331	
	62	0	2	3.44679		7.84687		5.14709	
	63	0	3	2.78601		7.33938		4.39512	
	64	0	1	3.49745		6.81422		5.08628	
	65	0	2	3.67382		6.84588		3.97833	
	66	0	3	2.77857		7.43241		3.64049	
	67	0	1	2.03696		6.76137		4.14978	
	68	0	2	1.41970		7.66672		4.39261	
	69	0	3	0.79555		6.82503		4.79467	
	70	0	1	1.21249		5.97618		5.39904	
	71	0	2	1.98690		5.70278		4.63406	
	72	0	3	2.20312		5.24978		5.63790	
	73	0	1	1.88793		6.30527		5.42286	
	74	0	2	2.50456		7.05961		5.97998	
	75	0	3	2.36627		6.69546		7.03256	
	76	0	1	2.04449		6.82935		8.09941	
	77	0	2	1.31309		7.66705		7.94787	
	78	0	3	0.62111		6.90151		7.50656	
	79	0	1	1.60699		7.13668		7.98862	
	80	0	2	1.01067		6.19358		7.86775	
	81	0	3	0.55894		5.86325		8.84061	
	82	0	1	19.45836		5.82792		8.62353	
	83	0	2	19.20436		4.74807		8.79397	
	84	0	3	18.57723		5.53033		8.28956	
	85	0	1	17.78996		4.87970		8.75488	
	86	0	2	16.85091		5.48681		8.85112	
	87	0	3	16.75549		4.67552		8.08148	
	88	0	1	16.50058		4.01929		8.95556	
	89	0	2	15.42103		4.19724		8.70548	
	90	0	3	15.37543		3.39628		9.49036	
	91	0	1	14.94043		4.04162		10.29904	
	92	0	2	13.85967		3.74788		10.22607	
	93	0	3	12.78245		3.75472		10.54103	
	94	0	1	12.40941		3.96947		11.57755	
	95	0	2	13.44769		4.02717		11.15530	
	96	0	3	12.43619		4.19317		10.69818	
	97	0	1	11.62232		4.45515		11.42525	
	98	0	2	12.08552		3.67065		10.76976	
	99	0	3	12.25422		2.56416		10.68694	
	100	0	1	11.60012		2.63706		9.77783	
	101	1	1	3.12019		19.82378		11.78055	
	102	1	2	3.04197		19.91097		10.66434	
	103	1	3	3.09069		1.02670		10.55288	
	104	1	1	2.51613		0.17501		11.00471	
	105	1	2	2.37061		1.28015		10.87385	
	106	1	3	2.10339		0.31674		11.38384	
	107	1	1	3.04485		0.37389		11.99214	
	108	1	2	3.68380		1.21610		11.61521	
	109	1	3	4.22517		0.68538		10.78761	
	110	1	1	5.03228		0.04598		10.34108	
	111	1	2	4.05261		19.62662		10.69328	
	112	1	3	3.23789		19.41684		11.43616	
	113	1	1	4.20538		19.93078		11.19226	
	114	1	2	4.08375		0.78648		11.90824	
	115	1	3	4.25888		1.59456		12.66718	
	116	1	1	4.14127		2.25284		13.56856	
	117	1	2	5.11736		1.82878		13.92503	
	118	1	3	5.60980		1.42534		14.84936	
	119	1	1	5.17693		2.30088		14.29646	
	120	1	2	5.94409		3.03009		14.66977	
	121	1	3	6.13251		2.04823		15.17976	
	122	1	1	5.02752		2.08013		15.37376	
	123	1	2	5.82416		2.70523		15.85776	
	124	1	3	6.50055		3.54523		15.54704	
	125	1	1	6.63114		2.44581		15.73106	
	126	1	2	6.68014		3.00387		16.70359	
	127	1	3	6.27050		1.96377		16.60348	
	128	1	1	6.86913		1.07402		16.27236	
	129	1	2	6.51693		0.12873		16.76432	
	130	1	3	6.38499		19.01604		16.82874	
	131	1	1	6.40179		17.89793		16.92462	
	132	1	2	5.93384		17.15043		16.23040	
	133	1	3	5.66296		18.03612		16.86430	
	134	1	1	4.63526		18.48489		16.81852	
	135	1	2	4.35383		18.76267		15.76815	
	136	1	3	4.05974		18.27403		14.80152	
	137	1	1	2.97219		18.25662		14.52482	
	138	1	2	4.03950		18.00518		14.28553	
	139	1	3	5.05911		18.01987		13.81666	
	140	1	1	4.68254		17.07252		13.34724	
	141	1	2	4.42601		16.09989		13.84506	
	142	1	3	3.50650		16.61061		13.45350	
	143	1	1	3.36415		17.56729		12.88416	
	144	1	2	4.10170		16.90564		12.35702	
	145	1	3	4.43032		17.55152		13.21405	
	146	1	1	4.77712		16.53442		12.89018	
	147	1	2	4.80585		15.70189		13.64232	
	148	1	3	4.60665		16.10076		12.61234	
	149	1	1	3.50626		16.07049		12.83113	
	150	1	2	4.52452		15.65399		13.05318	
	151	1	3	3.76093		15.85958		12.25675	
	152	1	1	4.46789		15.37945		11.52920	
	153	1	2	4.41115		14.47684		10.86457	
	154	1	3	4.02825		14.29645		11.90404	
	155	1	1	3.81028		13.95254		10.85816	
	156	1	2	3.87060		13.27213		11.74870	
	157	1	3	3.74692		12.62175		10.84242	
	158	1	1	3.87065		12.25653		11.89644	
	159	1	2	3.52787		11.28506		11.45103	
	160	1	3	4.33086		10.51163		11.32200	
	161	1	1	3.24684		10.23254		11.40349	
	162	1	2	3.85426		9.28938		11.43717	
	163	1	3	3.94620		8.63407		10.53066	
	164	1	1	4.87571		8.39180		11.11114	
	165	1	2	5.23531		8.12701		12.14081	
	166	1	3	5.08179		9.23329		12.25143	
	167	1	1	6.04091		8.81388		12.65621	
	168	1	2	5.53334		7.90264		13.07052	
	169	1	3	4.71158		7.53215		12.40187	
	170	1	1	3.74986		8.09427		12.53889	
	171	1	2	3.31138		9.11611		12.69124	
	172	1	3	2.36089		8.55091		12.49947	
	173	1	1	2.04579		9.33777		13.23514	
	174	1	2	2.69548		10.22894		13.02692	
	175	1	3	2.06994		9.55727		12.38100	
	176	1	1	2.94227		9.17841		11.78504	
	177	1	2	2.86743		8.06926		11.63067	
	178	1	3	3.92034		8.32764		11.92097	
	179	1	1	3.86118		8.80807		12.93356	
	180	1	2	3.73522		7.70031		13.06266	
	181	1	3	3.64845		6.72811		13.61668	
	182	1	1	4.56564		7.34052		13.82493	
	183	1	2	4.70047		6.28986		13.45402	
	184	1	3	4.32969		6.98615		14.25236	
	185	1	1	3.24468		6.69948		14.23697	
	186	1	2	4.26738		6.34500		14.53377	
	187	1	3	4.44091		7.10458		15.34160	
	188	1	1	4.68341		7.84601		14.53467	
	189	1	2	5.74873		7.52488		14.38770	
	190	1	3	6.36016		8.32505		14.88319	
	191	1	1	5.95119		9.27029		14.43718	
	192	1	2	6.44492		10.06884		15.05215	
	193	1	3	7.08611		10.67727		14.36053	
	194	1	1	7.58931		10.99600		15.31177	
	195	1	2	6.94231		11.24402		14.42886	
	196	1	3	7.39916		11.90178		15.21517	
	197	1	1	7.20567		12.99366		15.38841	
	198	1	2	6.60676		12.16391		15.84937	
	199	1	3	6.37506		12.07613		14.75472	
	200	1	1	6.39726		13.17230		14.51477	
	201	2	1	8.92802		5.97107		13.54911	
	202	2	2	8.98825		5.20003		14.36245	
	203	2	3	8.52766		4.21437		14.63808	
	204	2	1	9.64387		4.10044		14.61075	
	205	2	2	9.15724		4.99402		15.08441	
	206	2	3	9.24851		5.82124		14.33139	
	207	2	1	9.01757		5.59240		15.40562	
	208	2	2	9.56311		5.46085		16.37759	
	209	2	3	10.38536		6.19917		16.18151	
	210	2	1	9.32563		6.41743		15.88320	
	211	2	2	8.40051		7.04978		15.82057	
	212	2	3	8.30299		6.45194		16.76542	
	213	2	1	8.62737		7.16673		17.56761	
	214	2	2	8.32216		6.42276		18.35056	
	215	2	3	9.25240		6.83030		17.87285	
	216	2	1	8.87582		6.79102		16.81630	
	217	2	2	9.98256		6.84557		16.99463	
	218	2	3	10.00258		7.72042		17.69739	
	219	2	1	9.21695		8.27666		17.12031	
	220	2	2	8.63397		7.77641		16.30207	
	221	2	3	9.25888		7.14824		15.61320	
	222	2	1	10.03937		6.34399		15.55255	
	223	2	2	11.03386		6.45137		16.06157	
	224	2	3	10.25454		7.10747		15.59057	
	225	2	1	10.60301		7.28212		14.53809	
	226	2	2	10.86188		8.08847		15.27458	
	227	2	3	11.19011		8.10462		14.20143	
	228	2	1	11.78435		7.67947		13.34951	
	229	2	2	10.83964		7.16027		13.66192	
	230	2	3	11.05249		7.72961		14.60542	
	231	2	1	9.97456		7.41827		14.63331	
	232	2	2	8.85462		7.42118		14.55987	
	233	2	3	8.77333		6.37628		14.96141	
	234	2	1	9.70756		6.46625		14.34596	
	235	2	2	9.68725		5.54578		13.70412	
	236	2	3	10.11868		5.83198		14.69991	
	237	2	1	9.81819		6.91332		14.69141	
	238	2	2	10.80143		6.52453		15.06790	
	239	2	3	11.46133		7.19924		15.67530	
	240	2	1	11.19482		7.84532		16.55347	
	241	2	2	12.21761		8.30701		16.53370	
	242	2	3	11.66638		7.33219		16.60799	
	243	2	1	12.52109		6.60970		16.52357	
	244	2	2	12.02325		7.55656		16.18409	
	245	2	3	11.55033		8.05130		17.07360	
	246	2	1	11.28379		9.14148		17.08453	
	247	2	2	10.72427		8.70450		16.21526	
	248	2	3	10.53528		7.63052		16.48079	
	249	2	1	9.90591		8.05681		15.65507	
	250	2	2	10.17262		8.89320		14.95580	
	251	2	3	10.53931		9.35770		14.00217	
	252	2	1	10.95537		8.41697		13.55321	
	253	2	2	11.35976		8.52858		12.51222	
	254	2	3	12.02257		8.88770		11.68074	
	255	2	1	12.08244		8.06521		12.44203	
	256	2	2	11.74205		9.10859		12.67684	
	257	2	3	11.54776		9.32103		13.76163	
	258	2	1	10.55124		9.73990		13.45974	
	259	2	2	10.86738		8.77625		13.94044	
	260	2	3	11.43072		9.32533		13.13993	
	261	2	1	10.92306		9.34740		12.13921	
	262	2	2	10.60474		8.84584		11.18698	
	263	2	3	10.30710		7.93379		11.76941	
	264	2	1	10.91868		8.85816		11.59294	
	265	2	2	11.79097		9.43843		11.99551	
	266	2	3	11.75440		10.53739		11.77058	
	267	2	1	12.64331		11.20283		11.60725	
	268	2	2	12.73637		10.72654		12.61925	
	269	2	3	12.58977		9.76881		12.05276	
	270	2	1	12.95166		9.03388		11.28558	
	271	2	2	13.19311		10.10601		11.51338	
	272	2	3	14.07836		9.43753		11.68400	
	273	2	1	15.11025		9.75716		11.98845	
	274	2	2	15.01240		10.65890		11.32745	
	275	2	3	14.27016		11.43578		11.65175	
	276	2	1	13.82953		10.60176		11.04354	
	277	2	2	14.54028		9.75184		11.22278	
	278	2	3	14.71072		9.30582		10.20707	
	279	2	1	15.09426		10.35803		10.13352	
	280	2	2	14.80254		9.59552		9.36338	
	281	2	3	14.98607		10.68840		9.18572	
	282	2	1	14.98274		11.23898		10.16372	
	283	2	2	15.74916		10.80688		9.46692	
	284	2	3	15.75526		11.71752		8.81092	
	285	2	1	16.58957		12.04956		9.48421	
	286	2	2	16.43448		11.04150		9.01581	
	287	2	3	17.41049		11.34988		9.47618	
	288	2	1	18.43335		11.73756		9.22495	
	289	2	2	19.42123		11.21503		9.12141	
	290	2	3	19.23940		10.19215		8.69678	
	291	2	1	18.91928		10.39390		9.75341	
	292	2	2	0.03637		10.45772		9.66582	
	293	2	3	19.35221		11.07580		10.30577	
	294	2	1	0.32796		10.52466		10.24411	
	295	2	2	19.33211		10.51401		10.76161	
	296	2	3	19.60411		11.32840		11.48440	
	297	2	1	19.10993		12.22729		11.02896	
	298	2	2	19.42726		12.88219		10.17452	
	299	2	3	19.32525		13.98390		9.98617	
	300	2	1	18.92213		13.10113		10.54995	
	301	3	1	13.90436		3.24856		15.45561	
	302	3	2	13.69325		4.08665		14.73959	
	303	3	3	12.62760		4.21014		15.06941	
	304	3	1	12.31016		3.50339		14.25738	
	305	3	2	12.13530		3.86697		13.21006	
	306	3	3	11.38282		3.70708		12.39284	
	307	3	1	11.51239		3.37863		11.32749	
	308	3	2	10.78875		2.64580		10.88144	
	309	3	3	10.65689		1.59954		10.49726	
	310	3	1	10.70663		0.48979		10.33713	
	311	3	2	10.02917		1.31709		9.99616	
	312	3	3	9.18706		1.78315		10.57348	
	313	3	1	8.54202		1.28792		11.34699	
	314	3	2	9.23163		1.10709		12.21382	
	315	3	3	10.33929		0.95419		12.11706	
	316	3	1	10.73918		1.66801		12.88530	
	317	3	2	10.96926		1.60843		11.78841	
	318	3	3	11.76374		2.33606		11.47376	
	319	3	1	11.07231		2.83663		12.20246	
	320	3	2	10.10936		3.11863		11.69962	
	321	3	3	9.99939		3.46657		10.63826	
	322	3	1	9.51278		3.67228		9.64804	
	323	3	2	9.94026		2.73940		9.19345	
	324	3	3	10.47937		3.00159		10.14227	
	325	3	1	11.26207		3.57691		9.58010	
	326	3	2	10.91663		3.14148		10.55515	
	327	3	3	10.77314		3.76383		9.63225	
	328	3	1	11.49650		3.57036		10.46830	
	329	3	2	10.51305		3.22126		10.88135	
	330	3	3	10.79405		3.18963		11.96748	
	331	3	1	10.13242		3.96582		12.43590	
	332	3	2	9.24511		4.43713		11.93571	
	333	3	3	10.27786		4.45129		12.37488	
	334	3	1	9.93312		4.09432		11.36822	
	335	3	2	8.85551		3.90171		11.12063	
	336	3	3	8.85077		2.82580		11.44010	
	337	3	1	9.41451		2.13592		12.12268	
	338	3	2	8.36264		1.74550		12.09457	
	339	3	3	7.76362		1.42546		12.98810	
	340	3	1	7.00863		1.79701		13.73078	
	341	3	2	7.08177		1.20952		12.77729	
	342	3	3	7.79709		1.52917		13.58090	
	343	3	1	8.80524		1.25017		13.17414	
	344	3	2	9.74323		1.21797		12.55869	
	345	3	3	10.22647		2.09358		13.06803	
	346	3	1	10.79485		3.06133		13.07490	
	347	3	2	11.87448		2.86426		13.30989	
	348	3	3	12.77290		3.50483		13.10462	
	349	3	1	13.11972		4.26506		12.35534	
	350	3	2	12.61028		5.25225		12.19543	
	351	3	3	13.54099		4.63933		12.32871	
	352	3	1	14.51985		5.16794		12.47720	
	353	3	2	14.97781		5.34215		11.46747	
	354	3	3	14.01000		4.78695		11.34600	
	355	3	1	13.70693		5.70258		11.91995	
	356	3	2	13.10620		6.37941		12.58378	
	357	3	3	14.06567		6.03311		13.05190	
	358	3	1	14.31358		6.99418		12.52796	
	359	3	2	13.74407		6.58881		13.40601	
	360	3	3	14.03330		5.83597		14.18653	
	361	3	1	13.34593		6.30562		14.93926	
	362	3	2	12.59216		7.11717		15.12054	
	363	3	3	13.20438		8.00852		14.82001	
	364	3	1	13.18426		8.40781		15.86873	
	365	3	2	13.65018		7.86895		16.73602	
	366	3	3	14.37881		8.60811		16.30895	
	367	3	1	13.57772		8.15634		15.66567	
	368	3	2	14.03116		9.13937		15.96179	
	369	3	3	15.06166		9.34145		16.35787	
	370	3	1	15.46163		10.12812		17.05129	
	371	3	2	15.50762		9.47653		17.96397	
	372	3	3	15.29953		10.07036		18.89333	
	373	3	1	14.36799		10.62737		19.17902	
	374	3	2	14.69163		9.87750		18.40921	
	375	3	3	15.09831		10.64688		19.11796	
	376	3	1	14.09145		10.85937		18.66993	
	377	3	2	14.57523		11.44391		17.84294	
	378	3	3	15.35456		10.63964		17.91669	
	379	3	1	16.09449		10.02317		18.49299	
	380	3	2	16.72423		9.11632		18.69469	
	381	3	3	16.13415		8.66075		17.85570	
	382	3	1	15.88084		8.12779		18.81039	
	383	3	2	14.87061		8.47108		19.15860	
	384	3	3	14.70812		8.88681		18.12884	
	385	3	1	15.48254		8.07578		18.17536	
	386	3	2	14.80428		7.39139		18.75088	
	387	3	3	14.03507		7.74181		18.01253	
	388	3	1	13.10295		7.36048		17.51716	
	389	3	2	14.17027		7.01448		17.48966	
	390	3	3	14.91166		7.82420		17.25656	
	391	3	1	14.85564		6.71610		17.08736	
	392	3	2	15.34353		7.58717		16.57466	
	393	3	3	16.04123		7.89559		15.75141	
	394	3	1	15.93367		7.02483		16.45130	
	395	3	2	16.17665		6.25896		15.66768	
	396	3	3	15.14627		6.41858		16.08300	
	397	3	1	14.49117		6.19722		16.96702	
	398	3	2	15.02315		5.22778		17.15890	
	399	3	3	15.07277		6.29519		16.81564	
	400	3	1	15.44105		6.33031		17.87526	
	401	4	1	2.89880		17.45191		7.43195	
	402	4	2	3.60012		16.71369		6.95990	
	403	4	3	3.58399		16.12693		7.91652	
	404	4	1	4.25388		15.78972		8.75149	
	405	4	2	4.16324		14.67244		8.69571	
	406	4	3	4.78922		14.32800		9.56124	
	407	4	1	4.06637		13.47002		9.52953	
	408	4	2	3.19036		14.08449		9.86819	
	409	4	3	3.07504		13.58265		8.87094	
	410	4	1	3.55716		14.56643		9.11465	
	411	4	2	4.14395		13.62460		8.94645	
	412	4	3	4.56215		13.91582		7.94648	
	413	4	1	3.47721		14.20057		7.98461	
	414	4	2	3.02734		15.04314		7.39524	
	415	4	3	2.95433		15.28443		8.48890	
	416	4	1	1.95957		15.39487		7.98107	
	417	4	2	2.36412		14.78758		7.12831	
	418	4	3	2.06581		13.71930		7.29984	
	419	4	1	1.34464		12.86917		7.17007	
	420	4	2	1.78738		11.83837		7.13721	
	421	4	3	1.53648		11.28698		8.08203	
	422	4	1	1.96957		11.79604		8.98365	
	423	4	2	1.36893		11.08262		9.60807	
	424	4	3	1.99288		10.96297		8.68286	
	425	4	1	1.33136		10.09451		8.42243	
	426	4	2	2.43333		9.88931		8.47907	
	427	4	3	3.42417		9.69091		8.96745	
	428	4	1	4.00380		8.73358		8.88263	
	429	4	2	4.76484		8.55697		8.07686	
	430	4	3	5.33539		8.25132		8.99375	
	431	4	1	5.91556		7.90150		8.09895	
	432	4	2	5.46311		7.15820		8.80778	
	433	4	3	6.11881		8.01513		9.11661	
	434	4	1	6.05414		8.84159		8.36003	
	435	4	2	6.90490		8.16797		8.64652	
	436	4	3	7.50174		7.50026		7.97007	
	437	4	1	8.34011		7.31261		8.69228	
	438	4	2	9.06716		6.66871		9.25480	
	439	4	3	8.64724		7.56312		9.78710	
	440	4	1	9.41808		8.02175		9.11249	
	441	4	2	8.90425		8.05450		10.10976	
	442	4	3	9.80493		8.26941		10.74398	
	443	4	1	10.60138		7.69568		10.19979	
	444	4	2	10.46505		6.61683		9.92203	
	445	4	3	10.37131		5.50262		10.01892	
	446	4	1	10.83496		4.96250		10.88664	
	447	4	2	11.69180		5.20334		11.57037	
	448	4	3	11.96720		6.28181		11.42652	
	449	4	1	11.04763		6.88717		11.20843	
	450	4	2	10.01010		6.46044		11.17527	
	451	4	3	10.27032		5.36942		11.21534	
	452	4	1	10.82981		6.23825		10.77745	
	453	4	2	11.05012		6.61203		9.74236	
	454	4	3	10.84690		6.56458		8.63959	
	455	4	1	10.71854		5.65528		7.99434	
	456	4	2	10.61920		5.37001		9.07527	
	457	4	3	11.55608		5.41280		8.45877	
	458	4	1	12.49002		4.91367		8.83061	
	459	4	2	12.31932		3.91731		9.31823	
	460	4	3	11.30957		3.54595		8.99862	
	461	4	1	11.66758		4.26494		8.21470	
	462	4	2	11.37869		3.35976		7.61736	
	463	4	3	11.57000		2.86051		8.60417	
	464	4	1	11.79886		1.82731		8.97803	
	465	4	2	11.13587		1.01761		8.57247	
	466	4	3	11.59954		1.94013		8.13245	
	467	4	1	12.42625		1.19167		8.25889	
	468	4	2	13.45600		1.56259		8.01051	
	469	4	3	13.32736		1.46841		9.12147	
	470	4	1	14.09667		0.91401		9.72186	
	471	4	2	14.45557		1.71804		10.41783	
	472	4	3	15.31896		1.05680		10.69527	
	473	4	1	15.51627		0.75058		9.63370	
	474	4	2	15.13770		19.77921		10.04936	
	475	4	3	15.32185		0.04821		8.97541	
	476	4	1	15.44640		1.07197		8.53262	
	477	4	2	16.44844		1.14431		8.03229	
	478	4	3	15.96128		1.98116		7.46484	
	479	4	1	16.56730		1.86116		6.52782	
	480	4	2	17.23448		2.26775		7.33355	
	481	4	3	17.41498		3.28059		7.78214	
	482	4	1	17.32689		4.28500		8.27513	
	483	4	2	16.44435		3.69845		7.90538	
	484	4	3	17.54945		3.82222		8.05731	
	485	4	1	18.37523		3.55687		7.34505	
	486	4	2	18.90091		4.54405		7.25130	
	487	4	3	17.78674		4.42903		7.18030	
	488	4	1	16.96928		3.76524		6.79197	
	489	4	2	17.29094		2.81393		6.29078	
	490	4	3	18.40065		2.90908		6.15242	
	491	4	1	18.34956		1.81584		6.40117	
	492	4	2	19.12641		1.20068		6.92817	
	493	4	3	18.58075		1.14792		7.90751	
	494	4	1	17.67222		1.33107		7.27452	
	495	4	2	17.05467		0.57149		6.72561	
	496	4	3	18.08847		0.13974		6.65865	
	497	4	1	18.09764		0.32594		7.76539	
	498	4	2	17.74738		19.66977		8.60587	
	499	4	3	17.27771		0.68868		8.57625	
	500	4	1	17.36880		1.54245		9.29904	
	501	5	4	4.89505		8.67984		9.93297	
	502	5	4	4.59487		14.26544		10.11914	
	503	5	4	10.92559		1.30252		9.44883	
	504	5	4	11.59136		4.65095		10.11824	
	505	5	4	11.35521		4.40843		10.90981	
	506	5	4	11.06293		8.67519		10.49505	
	507	5	4	12.68031		4.52089		11.35478	
	508	5	4	12.55899		7.85769		16.62109	
	509	5	4	17.43826		3.40527		8.89729	
	510	5	4	16.77489		4.59775		9.20095	
Bonds                                                                               
                                                                                    
	1	1	1	2
	2	1	2	3
	3	1	3	4
	4	1	4	5
	5	1	5	6
	6	1	6	7
	7	1	7	8
	8	1	8	9
	9	1	9	10
	10	1	10	11
	11	1	11	12
	12	1	12	13
	13	1	13	14
	14	1	14	15
	15	1	15	16
	16	1	16	17
	17	1	17	18
	18	1	18	19
	19	1	19	20
	20	1	20	21
	21	1	21	22
	22	1	22	23
	23	1	23	24
	24	1	24	25
	25	1	25	26
	26	1	26	27
	27	1	27	28
	28	1	28	29
	29	1	29	30
	30	1	30	31
	31	1	31	32
	32	1	32	33
	33	1	33	34
	34	1	34	35
	35	1	35	36
	36	1	36	37
	37	1	37	38
	38	1	38	39
	39	1	39	40
	40	1	40	41
	41	1	41	42
	42	1	42	43
	43	1	43	44
	44	1	44	45
	45	1	45	46
	46	1	46	47
	47	1	47	48
	48	1	48	49
	49	1	49	50
	50	1	50	51
	51	1	51	52
	52	1	52	53
	53	1	53	54
	54	1	54	55
	55	1	55	56
	56	1	56	57
	57	1	57	58
	58	1	58	59
	59	1	59	60
	60	1	60	61
	61	1	61	62
	62	1	62	63
	63	1	63	64
	64	1	64	65
	65	1	65	66
	66	1	66	67
	67	1	67	68
	68	1	68	69
	69	1	69	70
	70	1	70	71
	71	1	71	72
	72	1	72	73
	73	1	73	74
	74	1	74	75
	75	1	75	76
	76	1	76	77
	77	1	77	78
	78	1	78	79
	79	1	79	80
	80	1	80	81
	81	1	81	82
	82	1	82	83
	83	1	83	84
	84	1	84	85
	85	1	85	86
	86	1	86	87
	87	1	87	88
	88	1	88	89
	89	1	89	90
	90	1	90	91
	91	1	91	92
	92	1	92	93
	93	1	93	94
	94	1	94	95
	95	1	95	96
	96	1	96	97
	97	1	97	98
	98	1	98	99
	99	1	99	100
	100	1	101	102
	101	1	102	103
	102	1	103	104
	103	1	104	105
	104	1	105	106
	105	1	106	107
	106	1	107	108
	107	1	108	109
	108	1	109	110
	109	1	110	111
	110	1	111	112
	111	1	112	113
	112	1	113	114
	113	1	114	115
	114	1	115	116
	115	1	116	117
	116	1	117	118
	117	1	118	119
	118	1	119	120
	119	1	120	121
	120	1	121	122
	121	1	122	123
	122	1	123	124
	123	1	124	125
	124	1	125	126
	125	1	126	127
	126	1	127	128
	127	1	128	129
	128	1	129	130
	129	1	130	131
	130	1	131	132
	131	1	132	133
	132	1	133	134
	133	1	134	135
	134	1	135	136
	135	1	136	137
	136	1	137	138
	137	1	138	139
	138	1	139	140
	139	1	140	141
	140	1	141	142
	141	1	142	143
	142	1	143	144
	143	1	144	145
	144	1	145	146
	145	1	146	147
	146	1	147	148
	147	1	148	149
	148	1	149	150
	149	1	150	151
	150	1	151	152
	151	1	152	153
	152	1	153	154
	153	1	154	155
	154	1	155	156
	155	1	156	157
	156	1	157	158
	157	1	158	159
	158	1	159	160
	159	1	160	161
	160	1	161	162
	161	1	162	163
	162	1	163	164
	163	1	164	165
	164	1	165	166
	165	1	166	167
	166	1	167	168
	167	1	168	169
	168	1	169	170
	169	1	170	171
	170	1	171	172
	171	1	172	173
	172	1	173	174
	173	1	174	175
	174	1	175	176
	175	1	176	177
	176	1	177	178
	177	1	178	179
	178	1	179	180
	179	1	180	181
	180	1	181	182
	181	1	182	183
	182	1	183	184
	183	1	184	185
	184	1	185	186
	185	1	186	187
	186	1	187	188
	187	1	188	189
	188	1	189	190
	189	1	190	191
	190	1	191	192
	191	1	192	193
	192	1	193	194
	193	1	194	195
	194	1	195	196
	195	1	196	197
	196	1	197	198
	197	1	198	199
	198	1	199	200
	199	1	201	202
	200	1	202	203
	201	1	203	204
	202	1	204	205
	203	1	205	206
	204	1	206	207
	205	1	207	208
	206	1	208	209
	207	1	209	210
	208	1	210	211
	209	1	211	212
	210	1	212	213
	211	1	213	214
	212	1	214	215
	213	1	215	216
	214	1	216	217
	215	1	217	218
	216	1	218	219
	217	1	219	220
	218	1	220	221
	219	1	221	222
	220	1	222	223
	221	1	223	224
	222	1	224	225
	223	1	225	226
	224	1	226	227
	225	1	227	228
	226	1	228	229
	227	1	229	230
	228	1	230	231
	229	1	231	232
	230	1	232	233
	231	1	233	234
	232	1	234	235
	233	1	235	236
	234	1	236	237
	235	1	237	238
	236	1	238	239
	237	1	239	240
	238	1	240	241
	239	1	241	242
	240	1	242	243
	241	1	243	244
	242	1	244	245
	243	1	245	246
	244	1	246	247
	245	1	247	248
	246	1	248	249
	247	1	249	250
	248	1	250	251
	249	1	251	252
	250	1	252	253
	251	1	253	254
	252	1	254	255
	253	1	255	256
	254	1	256	257
	255	1	257	258
	256	1	258	259
	257	1	259	260
	258	1	260	261
	259	1	261	262
	260	1	262	263
	261	1	263	264
	262	1	264	265
	263	1	265	266
	264	1	266	267
	265	1	267	268
	266	1	268	269
	267	1	269	270
	268	1	270	271
	269	1	271	272
	270	1	272	273
	271	1	273	274
	272	1	274	275
	273	1	275	276
	274	1	276	277
	275	1	277	278
	276	1	278	279
	277	1	279	280
	278	1	280	281
	279	1	281	282
	280	1	282	283
	281	1	283	284
	282	1	284	285
	283	1	285	286
	284	1	286	287
	285	1	287	288
	286	1	288	289
	287	1	289	290
	288	1	290	291
	289	1	291	292
	290	1	292	293
	291	1	293	294
	292	1	294	295
	293	1	295	296
	294	1	296	297
	295	1	297	298
	296	1	298	299
	297	1	299	300
	298	1	301	302
	299	1	302	303
	300	1	303	304
	301	1	304	305
	302	1	305	306
	303	1	306	307
	304	1	307	308
	305	1	308	309
	306	1	309	310
	307	1	310	311
	308	1	311	312
	309	1	312	313
	310	1	313	314
	311	1	314	315
	312	1	315	316
	313	1	316	317
	314	1	317	318
	315	1	318	319
	316	1	319	320
	317	1	320	321
	318	1	321	322
	319	1	322	323
	320	1	323	324
	321	1	324	325
	322	1	325	326
	323	1	326	327
	324	1	327	328
	325	1	328	329
	326	1	329	330
	327	1	330	331
	328	1	331	332
	329	1	332	333
	330	1	333	334
	331	1	334	335
	332	1	335	336
	333	1	336	337
	334	1	337	338
	335	1	338	339
	336	1	339	340
	337	1	340	341
	338	1	341	342
	339	1	342	343
	340	1	343	344
	341	1	344	345
	342	1	345	346
	343	1	346	347
	344	1	347	348
	345	1	348	349
	346	1	349	350
	347	1	350	351
	348	1	351	352
	349	1	352	353
	350	1	353	354
	351	1	354	355
	352	1	355	356
	353	1	356	357
	354	1	357	358
	355	1	358	359
	356	1	359	360
	357	1	360	361
	358	1	361	362
	359	1	362	363
	360	1	363	364
	361	1	364	365
	362	1	365	366
	363	1	366	367
	364	1	367	368
	365	1	368	369
	366	1	369	370
	367	1	370	371
	368	1	371	372
	369	1	372	373
	370	1	373	374
	371	1	374	375
	372	1	375	376
	373	1	376	377
	374	1	377	378
	375	1	378	379
	376	1	379	380
	377	1	380	381
	378	1	381	382
	379	1	382	383
	380	1	383	384
	381	1	384	385
	382	1	385	386
	383	1	386	387
	384	1	387	388
	385	1	388	389
	386	1	389	390
	387	1	390	391
	388	1	391	392
	389	1	392	393
	390	1	393	394
	391	1	394	395
	392	1	395	396
	393	1	396	397
	394	1	397	398
	395	1	398	399
	396	1	399	400
	397	1	401	402
	398	1	402	403
	399	1	403	404
	400	1	404	405
	401	1	405	406
	402	1	406	407
	403	1	407	408
	404	1	408	409
	405	1	409	410
	406	1	410	411
	407	1	411	412
	408	1	412	413
	409	1	413	414
	410	1	414	415
	411	1	415	416
	412	1	416	417
	413	1	417	418
	414	1	418	419
	415	1	419	420
	416	1	420	421
	417	1	421	422
	418	1	422	423
	419	1	423	424
	420	1	424	425
	421	1	425	426
	422	1	426	427
	423	1	427	428
	424	1	428	429
	425	1	429	430
	426	1	430	431
	427	1	431	432
	428	1	432	433
	429	1	433	434
	430	1	434	435
	431	1	435	436
	432	1	436	437
	433	1	437	438
	434	1	438	439
	435	1	439	440
	436	1	440	441
	437	1	441	442
	438	1	442	443
	439	1	443	444
	440	1	444	445
	441	1	445	446
	442	1	446	447
	443	1	447	448
	444	1	448	449
	445	1	449	450
	446	1	450	451
	447	1	451	452
	448	1	452	453
	449	1	453	454
	450	1	454	455
	451	1	455	456
	452	1	456	457
	453	1	457	458
	454	1	458	459
	455	1	459	460
	456	1	460	461
	457	1	461	462
	458	1	462	463
	459	1	463	464
	460	1	464	465
	461	1	465	466
	462	1	466	467
	463	1	467	468
	464	1	468	469
	465	1	469	470
	466	1	470	471
	467	1	471	472
	468	1	472	473
	469	1	473	474
	470	1	474	475
	471	1	475	476
	472	1	476	477
	473	1	477	478
	474	1	478	479
	475	1	479	480
	476	1	480	481
	477	1	481	482
	478	1	482	483
	479	1	483	484
	480	1	484	485
	481	1	485	486
	482	1	486	487
	483	1	487	488
	484	1	488	489
	485	1	489	490
	486	1	490	491
	487	1	491	492
	488	1	492	493
	489	1	493	494
	490	1	494	495
	491	1	495	496
	492	1	496	497
	493	1	497	498
	494	1	498	499
	495	1	499	500
	496	1	446	504
	497	1	504	96
	498	1	155	502
	499	1	502	407
	500	1	163	501
	501	1	501	430
	502	1	443	506
	503	1	506	264
	504	1	464	503
	505	1	503	309
	506	1	307	505
	507	1	505	96
	508	1	481	509
	509	1	509	88
	510	1	482	510
	511	1	510	87
	512	1	364	508
	513	1	508	245
	514	1	349	507
	515	1	507	93
