#-----------------------------------------------------------------------------------           
# NANOPOLY - POLYMER NANOCOMPOSITE STRUCTURAL DATA FILE                                        
#-----------------------------------------------------------------------------------           
# FILENAME:  test_structure.in                                                                  
# DATE: 2020-08-24                                                                                
#-----------------------------------------------------------------------------------           
                                                                                               
7300 atoms                                                                          
7795 bonds    
                                                                                               
93 atom types                                            
1 bond types                                            
                                                                                    
0.0000 20.0000 xlo xhi            
0.0000 20.0000 ylo yhi            
0.0000 20.0000 zlo zhi            
                                                                                    
Masses                                                                              
                                                                                    
1	1.0
2	1.0
3	1.0
4	3.0
5	3.0
6	3.0
7	3.0
8	3.0
9	3.0
10	3.0
11	3.0
12	3.0
13	3.0
14	3.0
15	3.0
16	3.0
17	3.0
18	3.0
19	3.0
20	3.0
21	3.0
22	3.0
23	3.0
24	3.0
25	3.0
26	3.0
27	3.0
28	3.0
29	3.0
30	3.0
31	3.0
32	3.0
33	3.0
34	3.0
35	3.0
36	3.0
37	3.0
38	3.0
39	3.0
40	3.0
41	3.0
42	3.0
43	3.0
44	3.0
45	3.0
46	3.0
47	3.0
48	3.0
49	3.0
50	3.0
51	3.0
52	3.0
53	3.0
54	3.0
55	3.0
56	3.0
57	3.0
58	3.0
59	3.0
60	3.0
61	3.0
62	3.0
63	3.0
64	3.0
65	3.0
66	3.0
67	3.0
68	3.0
69	3.0
70	3.0
71	3.0
72	3.0
73	3.0
74	3.0
75	3.0
76	3.0
77	3.0
78	3.0
79	3.0
80	3.0
81	3.0
82	3.0
83	3.0
84	3.0
85	3.0
86	3.0
87	3.0
88	3.0
89	3.0
90	3.0
91	3.0
92	3.0
93	3.0


Atoms                                                                               

	1	0	1	15.52239		1.70034		12.84181	
	2	0	2	14.83459		1.46932		13.69808	
	3	0	3	14.98315		2.25058		12.90611	
	4	0	4	15.98108		2.41468		12.41944	
	5	0	5	16.62298		2.29508		13.33229	
	6	0	6	16.75837		2.44036		14.43692	
	7	0	7	16.23953		3.41217		14.22234	
	8	0	8	17.19226		2.86119		14.00242	
	9	0	9	17.06009		3.91665		14.36043	
	10	0	10	17.81754		4.20619		13.58450	
	11	0	11	18.49536		4.71674		12.84996	
	12	0	12	17.43394		5.07256		12.93011	
	13	0	13	17.18022		5.40524		11.88867	
	14	0	14	16.83072		5.33611		10.82438	
	15	0	15	17.34400		5.29416		9.82717	
	16	0	16	17.82222		6.14674		9.27575	
	17	0	17	17.89188		5.94859		8.17324	
	18	0	18	18.74122		6.68225		8.17023	
	19	0	19	18.56693		6.82304		9.26998	
	20	0	20	18.46593		6.66888		10.37708	
	21	0	21	18.14608		5.78994		10.99740	
	22	0	22	17.17328		5.80619		10.43790	
	23	0	23	17.32460		4.80602		9.95169	
	24	0	24	16.40031		4.33935		9.51863	
	25	0	25	16.19552		4.21382		10.61496	
	26	0	26	15.35461		4.94288		10.75983	
	27	0	27	15.25746		4.98912		11.87700	
	28	0	28	15.67943		5.98213		12.18606	
	29	0	29	15.03358		5.55453		11.37386	
	30	0	30	14.48659		6.15835		10.60194	
	31	0	31	13.85914		6.15531		11.53251	
	32	0	32	13.15407		5.46018		12.06102	
	33	0	33	12.13978		5.49033		11.58150	
	34	0	34	11.90698		5.39542		10.48768	
	35	0	35	10.99625		4.74993		10.37120	
	36	0	36	10.94565		3.75063		9.86276	
	37	0	37	11.69057		3.35898		9.12024	
	38	0	38	11.36691		4.43011		9.20717	
	39	0	39	11.04232		5.35049		8.65291	
	40	0	40	11.96167		5.94496		8.90000	
	41	0	41	12.72905		6.70968		8.60681	
	42	0	42	13.07387		7.73483		8.90653	
	43	0	43	13.35462		7.99988		9.96036	
	44	0	44	12.33507		7.74522		9.56627	
	45	0	45	12.79464		6.76567		9.86447	
	46	0	46	12.18005		7.46408		10.49228	
	47	0	47	13.25881		7.73194		10.64776	
	48	0	48	13.40494		7.48478		11.73275	
	49	0	49	12.30683		7.71672		11.73349	
	50	0	50	12.90430		8.20840		10.92051	
	51	0	51	11.83575		8.07931		11.23862	
	52	0	52	11.79331		8.00051		12.35739	
	53	0	53	11.42363		8.99331		11.98681	
	54	0	54	10.98378		9.84290		12.57366	
	55	0	55	11.77807		10.33334		13.19673	
	56	0	56	11.76938		10.61079		12.10926	
	57	0	57	12.17241		10.92646		11.11047	
	58	0	58	12.63284		11.58172		11.89679	
	59	0	59	13.75260		11.56416		11.97077	
	60	0	60	13.58467		10.46203		11.84135	
	61	0	61	12.64473		10.56639		11.23697	
	62	0	62	11.93414		10.09168		11.96454	
	63	0	63	11.35862		9.63136		11.11806	
	64	0	64	10.71159		8.82931		11.56272	
	65	0	65	10.99431		8.89676		10.47867	
	66	0	66	11.98958		8.43614		10.71723	
	67	0	67	12.10188		7.42179		11.18427	
	68	0	68	12.50773		7.67792		10.16971	
	69	0	69	12.61912		6.66342		10.63663	
	70	0	70	12.68992		5.58500		10.93936	
	71	0	71	12.17949		5.77027		9.95713	
	72	0	72	11.19599		5.27402		9.74238	
	73	0	73	11.49061		5.65022		10.75792	
	74	0	74	10.75741		6.46069		11.01331	
	75	0	75	10.50227		7.33644		11.66722	
	76	0	76	11.46032		6.75664		11.74214	
	77	0	77	11.36072		7.46589		12.60625	
	78	0	78	12.17267		6.88614		13.12030	
	79	0	79	13.15350		7.16476		13.58935	
	80	0	80	13.69032		7.42453		14.54013	
	81	0	81	14.48248		6.92632		15.15974	
	82	0	82	13.37962		7.08208		15.02161	
	83	0	83	12.41949		7.39681		14.53300	
	84	0	84	11.86755		8.33556		14.80457	
	85	0	85	12.28997		7.50180		15.42589	
	86	0	86	11.31233		7.30284		15.93998	
	87	0	87	11.96382		8.21665		15.95285	
	88	0	88	11.56256		7.29713		16.45595	
	89	0	89	10.95588		6.54263		17.02368	
	90	0	90	10.88420		6.08025		16.00353	
	91	0	91	11.70226		6.73068		15.59444	
	92	0	92	11.38809		5.81564		15.02556	
	93	0	1	11.29693		5.27895		14.04408	
	94	0	2	10.18705		5.13286		14.12454	
	95	0	3	9.63027		4.28272		14.60088	
	96	0	4	10.26523		3.67816		13.90018	
	97	0	5	10.22950		3.66347		15.02185	
	98	0	6	9.84674		3.94666		16.03819	
	99	0	7	8.96413		3.71707		15.38403	
	100	0	8	9.31717		2.73080		14.98118	
	101	0	9	10.42491		2.88695		14.89078	
	102	0	10	11.25337		2.53217		15.55969	
	103	0	11	11.70125		1.61216		15.09856	
	104	0	12	11.80786		2.27314		14.19779	
	105	0	13	12.70260		2.77267		13.74002	
	106	0	14	13.46860		2.57120		12.94484	
	107	0	15	13.69922		3.65110		13.14554	
	108	0	16	14.10057		3.37651		12.13402	
	109	0	17	14.62146		4.32382		12.43558	
	110	0	18	14.20620		5.31242		12.76705	
	111	0	19	14.47455		4.89436		11.76064	
	112	0	20	13.89518		4.32061		10.98941	
	113	0	21	14.99852		4.43021		11.16344	
	114	0	22	14.91143		5.51077		10.87284	
	115	0	23	15.60447		6.37654		10.70022	
	116	0	24	16.45495		6.34665		9.96849	
	117	0	25	16.34435		5.22982		9.97865	
	118	0	26	16.28040		6.11140		9.28701	
	119	0	27	15.85472		6.04804		8.25046	
	120	0	28	15.92042		4.96535		8.53873	
	121	0	29	16.27713		5.72664		7.79520	
	122	0	30	15.86021		5.35196		6.82286	
	123	0	31	15.84552		6.46171		6.98985	
	124	0	32	15.87421		7.30561		6.25049	
	125	0	33	15.68213		6.39099		5.62901	
	126	0	34	14.63493		6.18437		5.28211	
	127	0	35	15.42024		5.41301		5.50105	
	128	0	36	16.36419		4.94288		5.88524	
	129	0	37	16.18294		5.45301		4.90210	
	130	0	38	15.45413		6.29338		5.05133	
	131	0	39	15.22528		5.23084		4.77154	
	132	0	40	14.41512		4.45416		4.76411	
	133	0	41	13.85159		4.59269		3.80344	
	134	0	42	12.81646		5.00820		3.67891	
	135	0	43	12.23465		5.87581		3.26856	
	136	0	44	11.19574		5.97447		2.85554	
	137	0	45	10.48374		6.81116		2.62608	
	138	0	46	10.65910		7.91834		2.68127	
	139	0	47	9.55966		7.70292		2.74815	
	140	0	48	8.74893		8.11386		2.08975	
	141	0	49	9.23823		8.74739		1.30306	
	142	0	50	9.87006		8.80845		0.37747	
	143	0	51	9.29670		8.84289		19.41325	
	144	0	52	8.94929		7.92192		19.95247	
	145	0	53	8.18335		7.91078		0.77275	
	146	0	54	8.93206		7.79915		1.60139	
	147	0	55	8.23178		6.98476		1.27579	
	148	0	56	8.82833		6.77956		2.20405	
	149	0	57	9.45375		7.07473		3.08799	
	150	0	58	9.33245		6.51887		4.05544	
	151	0	59	8.74735		5.70889		3.54431	
	152	0	60	9.00941		5.95257		2.48054	
	153	0	61	9.48066		6.22063		1.49784	
	154	0	62	10.48687		6.58419		1.83698	
	155	0	63	10.63500		6.07786		2.82760	
	156	0	64	11.63571		5.66599		2.52995	
	157	0	65	11.57789		4.71425		1.93793	
	158	0	66	11.79173		3.65892		1.62139	
	159	0	67	11.69017		4.75888		1.42281	
	160	0	68	11.11041		5.69935		1.22524	
	161	0	69	11.59235		6.43575		0.52876	
	162	0	70	10.93356		6.50717		1.43460	
	163	0	71	10.54432		5.46591		1.27999	
	164	0	72	11.33284		6.20817		0.98516	
	165	0	73	12.36454		6.31043		1.41503	
	166	0	74	12.32300		6.91373		0.46954	
	167	0	75	13.27472		6.86088		19.87701	
	168	0	76	14.12187		7.55799		0.11369	
	169	0	77	13.90684		8.51024		0.66743	
	170	0	78	12.99674		9.03830		1.05797	
	171	0	79	12.12019		9.69282		1.30879	
	172	0	80	11.00619		9.56694		1.36178	
	173	0	81	11.51011		9.53118		0.35957	
	174	0	82	11.81301		9.70383		19.29275	
	175	0	83	11.50938		10.62754		19.85330	
	176	0	84	12.62718		10.72807		19.84530	
	177	0	85	13.67822		10.41918		0.08931	
	178	0	86	13.49063		10.41186		18.98278	
	179	0	87	13.57512		9.30038		18.85193	
	180	0	88	13.40370		9.71205		17.82198	
	181	0	89	12.37922		9.82732		17.37836	
	182	0	90	13.02365		10.21564		18.21116	
	183	0	91	12.02559		10.68207		18.42553	
	184	0	92	12.57935		9.70747		18.36940	
	185	0	1	12.97563		8.92437		17.66986	
	186	0	2	11.98543		8.40972		17.55039	
	187	0	3	12.67470		8.69202		16.71084	
	188	0	4	12.03983		9.49458		17.17178	
	189	0	5	12.52091		9.21429		16.19728	
	190	0	6	12.99986		8.22720		16.43370	
	191	0	7	13.80407		8.90522		16.04231	
	192	0	8	14.07656		7.81647		16.03671	
	193	0	9	15.11164		7.74772		15.60832	
	194	0	10	14.53217		7.37366		14.72292	
	195	0	11	14.91151		6.39278		15.11486	
	196	0	12	14.87138		7.11267		15.97498	
	197	0	13	15.38220		7.28824		14.99117	
	198	0	14	16.05845		7.42462		14.10587	
	199	0	15	16.62516		6.76037		13.40071	
	200	0	16	16.56825		7.44699		14.28669	
	201	0	17	15.74212		8.20556		14.32832	
	202	0	18	16.24201		8.12255		15.32975	
	203	0	19	17.29946		8.49683		15.29279	
	204	0	20	16.89408		7.48935		15.00941	
	205	0	21	17.47949		7.17553		14.10472	
	206	0	22	18.49816		6.88262		14.47373	
	207	0	23	19.43746		7.44354		14.72419	
	208	0	24	19.17389		6.35386		14.67150	
	209	0	25	19.84225		7.15828		14.26425	
	210	0	26	0.57402		8.00640		14.19458	
	211	0	27	1.45230		7.39852		14.53917	
	212	0	28	0.92538		8.05751		15.27925	
	213	0	29	1.54950		8.21417		16.19880	
	214	0	30	0.63314		8.82468		15.98153	
	215	0	31	0.11500		9.17290		15.04883	
	216	0	32	19.50373		8.30646		15.41663	
	217	0	33	18.90652		9.07312		15.97807	
	218	0	34	19.12947		9.23066		14.88944	
	219	0	35	0.06493		9.84167		14.99544	
	220	0	36	1.07026		9.62045		14.54821	
	221	0	37	1.33972		10.59121		14.05356	
	222	0	38	1.13515		10.97497		15.08822	
	223	0	39	0.16210		11.07892		14.53867	
	224	0	40	0.70326		11.12000		15.52107	
	225	0	41	0.29719		12.14687		15.72179	
	226	0	42	1.12645		12.78441		16.12863	
	227	0	43	2.11994		13.23182		15.85943	
	228	0	44	2.35586		14.29076		15.57197	
	229	0	45	3.04623		14.93875		14.96936	
	230	0	46	3.68430		15.70335		15.48695	
	231	0	47	4.38435		14.89317		15.15051	
	232	0	48	3.49236		15.47744		14.80031	
	233	0	49	3.72321		16.17800		15.64622	
	234	0	50	3.72578		16.91494		16.49272	
	235	0	51	3.32757		17.20382		17.50149	
	236	0	52	3.44408		17.00330		18.59961	
	237	0	53	2.73126		16.37197		18.00551	
	238	0	54	3.18249		16.71978		18.97250	
	239	0	55	3.78502		15.77992		18.85731	
	240	0	56	4.86150		15.46277		18.84145	
	241	0	57	4.44295		14.74122		19.59234	
	242	0	58	5.38918		15.11488		0.06632	
	243	0	59	6.08188		14.28315		0.36304	
	244	0	60	7.08820		14.07716		0.81529	
	245	0	61	7.77893		13.34841		1.31676	
	246	0	62	7.92782		12.30971		0.91854	
	247	0	63	8.59144		12.73616		0.12017	
	248	0	64	7.96877		11.80306		0.08503	
	249	0	65	9.04925		12.07719		0.21564	
	250	0	66	9.67233		11.51717		0.96250	
	251	0	67	9.20489		10.50003		1.04358	
	252	0	68	9.98146		10.97346		1.70120	
	253	0	69	10.42543		10.75628		2.70885	
	254	0	70	10.16521		9.89956		3.38558	
	255	0	71	9.62585		10.26358		2.47112	
	256	0	72	10.62124		9.78300		2.27645	
	257	0	73	10.30042		9.00394		3.01792	
	258	0	74	10.32895		9.74386		3.86134	
	259	0	75	9.68357		10.30564		3.13502	
	260	0	76	10.28836		10.51460		2.21295	
	261	0	77	10.75056		11.50619		1.96244	
	262	0	78	9.84685		12.02138		1.54109	
	263	0	79	8.89228		11.44588		1.40975	
	264	0	80	7.89720		11.37931		1.92457	
	265	0	81	7.51317		10.39306		2.29803	
	266	0	82	8.48238		9.88013		2.05892	
	267	0	83	7.41752		9.73317		2.38160	
	268	0	84	8.19734		9.52910		3.16255	
	269	0	85	8.39301		10.59768		3.44448	
	270	0	86	8.00923		10.86321		2.42377	
	271	0	87	7.41736		10.78903		3.37448	
	272	0	88	8.28793		11.38523		2.99198	
	273	0	89	7.34108		11.77199		3.45410	
	274	0	90	7.29373		11.99965		2.35612	
	275	0	91	7.34913		12.51069		3.35382	
	276	0	92	7.40211		13.61190		3.14360	
	277	0	1	7.30172		12.56962		2.73960	
	278	0	2	7.03621		11.48400		2.63665	
	279	0	3	6.41217		10.94628		1.87438	
	280	0	4	6.27095		11.26711		2.94057	
	281	0	5	6.51385		10.18778		2.75165	
	282	0	6	6.81334		9.18894		2.33660	
	283	0	7	7.06418		8.11306		2.53466	
	284	0	8	8.12710		7.94296		2.85234	
	285	0	9	7.47024		7.86383		1.94574	
	286	0	10	7.38753		8.03600		3.05171	
	287	0	11	7.09527		7.46676		3.97377	
	288	0	12	7.23452		6.65048		4.73137	
	289	0	13	8.33560		6.58468		4.93858	
	290	0	14	7.98325		6.02319		4.03291	
	291	0	15	7.47474		5.96859		3.03388	
	292	0	16	8.14993		6.34737		2.22129	
	293	0	17	7.15297		6.14070		1.74905	
	294	0	18	6.29124		6.38773		1.07374	
	295	0	19	5.89214		6.10242		0.06430	
	296	0	20	5.60291		6.88014		0.82004	
	297	0	21	5.61573		5.77927		1.03815	
	298	0	22	5.29213		4.72413		1.24211	
	299	0	23	5.05907		5.22587		2.21863	
	300	0	24	4.25777		4.92046		2.94271	
	301	0	25	3.73953		4.26150		3.68894	
	302	0	26	3.84287		5.15010		4.36670	
	303	0	27	3.27859		5.78101		5.10372	
	304	0	28	3.97020		6.19168		5.88645	
	305	0	29	3.03619		5.57987		5.77259	
	306	0	30	3.38714		5.19998		6.76867	
	307	0	31	3.30480		6.30311		6.57897	
	308	0	32	4.04849		6.85779		7.21055	
	309	0	33	3.48300		6.29425		7.99940	
	310	0	34	2.84642		7.10465		8.44399	
	311	0	35	3.91979		6.84503		8.24367	
	312	0	36	4.81598		7.10072		8.86905	
	313	0	37	4.62852		6.83150		7.79573	
	314	0	38	3.66879		7.38099		7.60434	
	315	0	39	2.65578		7.72124		7.26128	
	316	0	40	2.33454		7.04111		6.42830	
	317	0	41	2.62265		6.66675		7.44638	
	318	0	42	2.69666		5.64122		7.89635	
	319	0	43	3.60321		5.21680		7.38873	
	320	0	44	4.56042		5.11432		6.81176	
	321	0	45	4.84623		5.87559		7.58533	
	322	0	46	4.99788		5.85160		6.47355	
	323	0	47	4.09667		5.64012		7.10817	
	324	0	48	4.43740		5.66568		8.17724	
	325	0	49	4.79618		6.40106		8.94545	
	326	0	50	5.63971		6.79449		8.31830	
	327	0	51	5.96211		5.74717		8.07575	
	328	0	52	5.71173		5.75732		6.98175	
	329	0	53	6.65646		5.28111		6.60711	
	330	0	54	5.71071		4.96394		6.09271	
	331	0	55	6.70036		5.49286		6.11464	
	332	0	56	6.18737		5.84274		5.17972	
	333	0	57	6.17780		6.90570		5.53982	
	334	0	58	7.17593		6.65937		5.99004	
	335	0	59	6.29683		7.01075		6.59283	
	336	0	60	5.81257		8.02183		6.53926	
	337	0	61	6.12227		7.87733		7.60830	
	338	0	62	6.51749		8.13372		8.62698	
	339	0	63	6.49096		7.55269		9.58685	
	340	0	64	5.53939		8.03037		9.94181	
	341	0	65	4.78318		8.80909		9.65653	
	342	0	66	5.39617		8.51763		8.76269	
	343	0	67	5.79417		7.50349		9.03244	
	344	0	68	4.68464		7.62844		8.91853	
	345	0	69	5.25569		7.12780		9.74492	
	346	0	70	6.11365		6.64874		9.20266	
	347	0	71	5.74242		6.85659		10.24123	
	348	0	72	5.61875		5.74536		10.33874	
	349	0	73	5.08026		6.22357		9.47794	
	350	0	74	5.09011		5.13176		9.21811	
	351	0	75	6.05667		4.96404		9.76336	
	352	0	76	6.84142		4.86316		10.55937	
	353	0	77	7.19010		5.64167		11.28874	
	354	0	78	8.00310		6.10492		11.90848	
	355	0	79	8.89696		5.92599		11.25377	
	356	0	80	8.28070		4.98877		11.29218	
	357	0	81	9.02556		5.05958		12.12872	
	358	0	82	9.34920		6.07623		12.47704	
	359	0	83	10.28006		5.74971		11.94176	
	360	0	84	10.86037		4.87486		11.54488	
	361	0	85	10.50068		3.91321		11.99821	
	362	0	86	9.96008		3.75290		12.96862	
	363	0	87	8.85395		3.57270		13.02904	
	364	0	88	8.64772		4.49679		12.42640	
	365	0	89	9.65818		4.69673		12.87210	
	366	0	90	10.55579		4.57612		12.20924	
	367	0	91	9.58320		5.12613		12.10343	
	368	0	92	8.72602		5.33321		12.79770	
	369	0	1	9.83132		5.21170		12.64541	
	370	0	2	10.47041		6.05565		13.01819	
	371	0	3	10.79300		6.84653		12.29012	
	372	0	4	11.85222		7.21715		12.30879	
	373	0	5	12.73094		7.91532		12.31625	
	374	0	6	13.06430		7.09619		13.00729	
	375	0	7	13.29299		6.05119		12.66768	
	376	0	8	13.96056		6.17477		13.56140	
	377	0	9	14.38996		6.38926		12.54688	
	378	0	10	15.33873		6.38643		11.94732	
	379	0	11	14.66771		5.57584		12.33759	
	380	0	12	14.63195		6.66798		12.08148	
	381	0	13	15.09818		7.50181		12.67054	
	382	0	14	15.22127		6.44291		13.02156	
	383	0	15	15.59779		7.29793		13.64350	
	384	0	16	14.57627		6.90490		13.89186	
	385	0	17	15.51367		6.81993		13.28053	
	386	0	18	14.77465		6.04246		12.95034	
	387	0	19	14.59023		5.01650		13.36632	
	388	0	20	15.20649		4.08246		13.45262	
	389	0	21	14.89964		3.00315		13.47649	
	390	0	22	15.34502		1.99010		13.66363	
	391	0	23	14.93051		1.19200		14.33510	
	392	0	24	14.00090		1.03056		13.72731	
	393	0	25	13.57762		2.06803		13.66304	
	394	0	26	12.93209		1.33422		13.11127	
	395	0	27	13.59293		0.49107		13.44600	
	396	0	28	12.66845		0.48691		12.80963	
	397	0	29	13.59894		0.19050		12.25649	
	398	0	30	14.10467		0.12362		13.25620	
	399	0	31	14.64304		19.44054		12.54684	
	400	0	32	14.97192		0.34478		11.96905	
	401	0	33	14.46247		1.12483		11.34325	
	402	0	34	14.54135		2.12102		11.85417	
	403	0	35	15.26554		2.57037		12.58443	
	404	0	36	15.08308		3.66621		12.74409	
	405	0	37	14.12901		3.09261		12.60127	
	406	0	38	13.97425		2.22610		13.29759	
	407	0	39	13.35141		1.43664		12.79914	
	408	0	40	12.63633		2.15250		13.28479	
	409	0	41	11.85690		1.48750		13.74294	
	410	0	42	12.30694		0.49747		13.46552	
	411	0	43	11.35948		0.76137		14.00619	
	412	0	44	11.47931		1.83972		13.71904	
	413	0	45	11.96097		1.26549		12.88363	
	414	0	46	10.89057		0.97897		13.06193	
	415	0	47	9.81346		0.67885		12.96493	
	416	0	48	9.49259		0.55112		14.03282	
	417	0	49	9.66667		1.59665		14.40189	
	418	0	50	10.63058		1.87985		13.90158	
	419	0	51	11.31124		1.05358		13.56449	
	420	0	52	11.85892		0.54369		12.72800	
	421	0	53	12.52689		0.46439		11.82957	
	422	0	54	11.42865		0.45540		11.59841	
	423	0	55	12.29591		0.62804		12.28956	
	424	0	56	13.22804		0.98810		11.77854	
	425	0	57	13.37801		19.91120		11.50027	
	426	0	58	14.02931		19.05708		11.17481	
	427	0	59	14.12312		18.20026		11.89364	
	428	0	60	14.29690		18.60332		10.86069	
	429	0	61	14.94734		18.55636		9.94725	
	430	0	62	15.39602		19.58215		10.02531	
	431	0	63	15.73536		18.81361		9.28110	
	432	0	64	15.19674		19.57510		8.65686	
	433	0	65	15.34164		0.23589		9.55241	
	434	0	66	15.53374		19.96933		10.62558	
	435	0	67	15.74144		0.46016		11.61330	
	436	0	68	16.31322		1.42025		11.50874	
	437	0	69	15.69731		1.23092		12.42768	
	438	0	70	16.04884		0.81033		13.40705	
	439	0	71	16.39993		1.47721		14.23871	
	440	0	72	17.50618		1.56516		14.07106	
	441	0	73	18.28306		2.37494		14.09041	
	442	0	74	18.60656		2.90673		15.02432	
	443	0	75	17.58461		3.04535		14.58155	
	444	0	76	18.44554		3.69144		14.26372	
	445	0	77	18.95300		3.46929		15.23983	
	446	0	78	18.27230		2.84547		15.87791	
	447	0	79	18.40186		2.79405		16.99155	
	448	0	80	18.46762		3.90876		17.10439	
	449	0	81	17.56286		3.24842		17.17507	
	450	0	82	16.96152		2.89132		16.29727	
	451	0	83	16.08567		3.10387		15.62842	
	452	0	84	15.50409		2.17376		15.86570	
	453	0	85	14.77796		1.59738		16.49829	
	454	0	86	14.19688		2.03161		17.35470	
	455	0	87	13.43097		2.81813		17.12141	
	456	0	88	13.96068		2.15254		17.85356	
	457	0	89	14.33093		1.51556		18.70022	
	458	0	90	14.83456		1.86595		17.76041	
	459	0	91	14.38509		2.18684		18.73748	
	460	0	92	14.62282		3.28106		18.81376	
	461	0	1	15.12938		3.09988		19.79876	
	462	0	2	14.99194		4.03696		0.40095	
	463	0	3	15.98890		3.85468		19.91878	
	464	0	4	15.48876		3.90090		18.91510	
	465	0	5	16.46942		4.21930		18.47173	
	466	0	6	16.46632		4.26085		17.35017	
	467	0	7	16.47000		3.19222		17.00716	
	468	0	8	16.21886		2.49819		17.85268	
	469	0	9	16.07688		2.12804		18.90267	
	470	0	10	15.02294		2.47164		19.07813	
	471	0	11	15.24098		3.56375		19.21743	
	472	0	12	15.75702		2.63158		18.86471	
	473	0	13	15.49096		2.15754		19.84662	
	474	0	14	14.67492		2.46208		0.55441	
	475	0	15	15.09187		2.36782		1.59215	
	476	0	16	15.39662		2.77157		2.59403	
	477	0	17	15.99881		1.99127		2.05725	
	478	0	18	16.38875		0.98985		1.73357	
	479	0	19	17.47825		1.22527		1.60241	
	480	0	20	16.84640		0.49359		1.03227	
	481	0	21	16.02251		19.73145		1.03019	
	482	0	22	15.42222		0.18939		0.19977	
	483	0	23	16.05814		19.55196		19.52974	
	484	0	24	15.11000		19.00794		19.27536	
	485	0	25	14.38476		19.85402		19.40887	
	486	0	26	14.13585		0.94574		19.33245	
	487	0	27	13.77527		1.90918		19.78123	
	488	0	28	14.77521		2.34142		0.05127	
	489	0	29	15.10034		3.40213		0.22105	
	490	0	30	15.00412		4.10807		19.35385	
	491	0	31	14.33935		4.31614		0.23388	
	492	0	32	13.49682		4.82493		0.77325	
	493	0	33	14.06147		5.26600		19.90938	
	494	0	34	14.14262		6.33371		19.57313	
	495	0	35	14.25472		5.75481		18.61816	
	496	0	36	13.51453		5.96671		19.43479	
	497	0	37	12.60493		5.57373		19.96189	
	498	0	38	12.69399		5.19280		1.01385	
	499	0	39	12.61412		4.60523		0.06094	
	500	0	40	12.97764		3.65743		0.53964	
	501	0	41	13.70877		3.05654		1.14300	
	502	0	42	13.91255		4.08158		0.73384	
	503	0	43	14.33614		4.27058		19.71183	
	504	0	44	15.43579		4.49022		19.66526	
	505	0	45	14.66263		4.95757		18.99933	
	506	0	46	13.84670		4.75736		19.74351	
	507	0	47	14.13794		5.82169		19.53855	
	508	0	48	14.91561		6.56313		19.86281	
	509	0	49	16.02493		6.57437		19.69273	
	510	0	50	15.99358		5.57762		0.20767	
	511	0	51	15.94268		5.79251		1.30807	
	512	0	52	16.76099		5.30888		0.71130	
	513	0	53	17.48105		4.90654		1.47240	
	514	0	54	16.56193		4.48269		0.98741	
	515	0	55	15.68438		4.74275		1.63697	
	516	0	56	15.15089		5.69869		1.88437	
	517	0	57	15.67782		6.49079		2.47985	
	518	0	58	15.48143		6.84034		3.52813	
	519	0	59	15.28587		7.94191		3.43898	
	520	0	60	14.56405		8.78581		3.60161	
	521	0	61	13.93675		8.51098		4.49078	
	522	0	62	14.89634		8.42068		3.91574	
	523	0	63	13.90499		8.40117		3.38993	
	524	0	64	15.02156		8.46234		3.29417	
	525	0	65	14.16556		8.11269		3.93030	
	526	0	66	14.88386		8.50362		4.69898	
	527	0	67	15.08353		9.30804		3.94222	
	528	0	68	14.48066		9.80707		4.74669	
	529	0	69	14.64428		10.68805		5.42252	
	530	0	70	14.64294		11.55979		6.12942	
	531	0	71	14.15450		10.73643		5.54362	
	532	0	72	13.72886		9.84110		6.06978	
	533	0	73	13.20123		9.74077		7.05527	
	534	0	74	13.34837		10.81243		6.75602	
	535	0	75	12.26277		11.09599		6.78275	
	536	0	76	11.75863		10.11476		6.98933	
	537	0	77	10.85340		10.73241		7.23164	
	538	0	78	10.42113		9.70011		7.14714	
	539	0	79	11.41965		9.18826		7.12256	
	540	0	80	11.20703		8.61694		6.18020	
	541	0	81	12.18426		9.05707		5.84712	
	542	0	82	12.86717		9.94285		5.94031	
	543	0	83	13.64814		9.47230		5.28584	
	544	0	84	13.30333		9.93923		4.32525	
	545	0	85	14.42183		10.00963		4.26479	
	546	0	86	15.19765		10.27528		5.03107	
	547	0	87	15.83253		11.19280		5.15242	
	548	0	88	16.42725		10.76013		6.00022	
	549	0	89	16.74412		11.83554		6.05243	
	550	0	90	17.15400		11.46270		7.02845	
	551	0	91	17.24870		11.63232		8.13385	
	552	0	92	18.01458		11.74913		7.32180	
	553	0	1	18.97763		11.23701		7.58622	
	554	0	2	19.55752		10.49330		8.19471	
	555	0	3	19.58563		11.49461		7.68851	
	556	0	4	19.21809		11.86591		8.68184	
	557	0	5	19.33629		12.72174		7.96544	
	558	0	6	18.55172		12.15261		7.39959	
	559	0	7	17.64248		12.77428		7.61515	
	560	0	8	17.61118		13.60486		6.86097	
	561	0	9	16.69803		14.03913		6.37392	
	562	0	10	15.81035		13.71209		5.77001	
	563	0	11	16.49999		12.88253		5.46036	
	564	0	12	16.77258		12.49211		4.44404	
	565	0	13	17.86011		12.33844		4.67495	
	566	0	14	16.97486		12.15850		5.34098	
	567	0	15	17.68656		11.46734		5.86579	
	568	0	16	16.95726		11.08245		5.10445	
	569	0	17	17.30120		11.90554		5.78554	
	570	0	18	17.78015		11.39840		6.66478	
	571	0	19	17.07066		11.88962		7.38240	
	572	0	20	16.08630		11.37296		7.22828	
	573	0	21	15.77302		10.48540		6.61694	
	574	0	22	16.08928		9.55247		6.07910	
	575	0	23	15.16577		10.17939		5.96189	
	576	0	24	14.55586		9.31113		5.59612	
	577	0	25	14.39607		8.24520		5.28324	
	578	0	26	15.51336		8.15834		5.34460	
	579	0	27	15.64974		7.34184		4.58673	
	580	0	28	16.55748		6.85383		5.03114	
	581	0	29	17.65849		7.02842		4.90099	
	582	0	30	17.41214		8.09587		4.65702	
	583	0	31	17.81437		8.26107		5.69170	
	584	0	32	17.68239		9.24425		6.21667	
	585	0	33	18.01892		9.15317		5.14985	
	586	0	34	18.35782		9.71541		4.23954	
	587	0	35	18.11673		10.25982		3.28814	
	588	0	36	18.42474		9.69095		2.37099	
	589	0	37	18.96785		8.75828		2.67890	
	590	0	38	18.23877		8.27157		1.97804	
	591	0	39	17.46509		8.70687		1.29133	
	592	0	40	17.84146		7.64970		1.31054	
	593	0	41	18.71162		8.27714		1.64038	
	594	0	42	18.65189		9.39634		1.69915	
	595	0	43	19.36213		9.90706		2.40227	
	596	0	44	19.45268		11.00861		2.59733	
	597	0	45	19.65545		11.72590		3.43639	
	598	0	46	0.26594		11.83079		4.37231	
	599	0	47	19.79161		10.93859		3.88381	
	600	0	48	0.70318		10.30320		3.72585	
	601	0	49	19.83684		10.44926		4.42424	
	602	0	50	18.79840		10.75574		4.71981	
	603	0	51	18.04188		11.57640		4.60213	
	604	0	52	17.05750		11.66689		4.07067	
	605	0	53	16.82211		11.60853		2.97484	
	606	0	54	16.16605		11.25921		3.81580	
	607	0	55	16.45801		10.77760		2.84500	
	608	0	56	16.27138		11.73871		3.39371	
	609	0	57	15.28862		11.57727		2.87624	
	610	0	58	15.29390		12.58617		2.38457	
	611	0	59	16.17723		13.27854		2.38698	
	612	0	60	16.14856		14.28608		1.89334	
	613	0	61	15.35965		14.38827		1.10162	
	614	0	62	14.50767		13.82367		0.63793	
	615	0	63	13.67004		13.15944		0.29614	
	616	0	64	14.35693		12.33368		0.62164	
	617	0	65	14.97229		12.14254		1.54058	
	618	0	66	15.34052		12.22729		0.48375	
	619	0	67	16.45553		12.12908		0.40159	
	620	0	68	15.99786		11.12838		0.18070	
	621	0	69	15.85508		10.01580		0.14301	
	622	0	70	15.79441		10.98804		19.58558	
	623	0	71	15.09991		10.86928		18.71196	
	624	0	72	14.56616		10.07738		18.12235	
	625	0	73	15.50664		9.61729		17.71804	
	626	0	74	14.65151		9.33751		17.04713	
	627	0	75	14.08894		10.04722		17.71006	
	628	0	76	14.37442		10.91539		18.36154	
	629	0	77	13.28948		10.89319		18.64798	
	630	0	78	13.65512		11.81210		18.11737	
	631	0	79	13.57675		12.69915		18.80049	
	632	0	80	13.93224		13.21774		19.73019	
	633	0	81	13.20019		13.87784		19.19351	
	634	0	82	13.54105		14.51987		0.04864	
	635	0	83	12.69810		15.13289		0.46494	
	636	0	84	12.84438		16.22460		0.68039	
	637	0	85	11.83727		16.14396		1.16915	
	638	0	86	11.07742		16.70306		1.77716	
	639	0	87	12.18110		16.50801		1.83625	
	640	0	88	11.65928		17.09390		2.63880	
	641	0	89	10.98170		17.93678		2.93894	
	642	0	90	10.09814		17.40241		2.49917	
	643	0	91	11.07541		17.69719		2.03260	
	644	0	92	10.36513		18.55865		2.14677	
	645	0	1	9.65952		17.68842		2.07997	
	646	0	2	9.76109		16.87236		2.84377	
	647	0	3	8.70620		16.55010		2.63640	
	648	0	4	9.09503		17.57985		2.85567	
	649	0	5	9.65507		18.54119		2.70794	
	650	0	6	9.03354		18.04908		1.91348	
	651	0	7	9.24680		18.53185		0.92298	
	652	0	8	9.64918		18.68566		1.95936	
	653	0	9	10.33744		19.55616		2.12721	
	654	0	10	11.15670		19.30594		1.40206	
	655	0	11	11.83155		18.67361		2.03797	
	656	0	12	12.54317		18.67744		2.90586	
	657	0	13	11.83415		18.66068		3.77572	
	658	0	14	11.32414		19.18029		2.92159	
	659	0	15	12.42802		19.38035		2.88871	
	660	0	16	13.30390		19.70965		2.26900	
	661	0	17	13.73339		18.69749		2.04379	
	662	0	18	13.03023		17.99410		1.52373	
	663	0	19	12.46549		17.08290		1.19143	
	664	0	20	11.62118		16.45639		0.79865	
	665	0	21	12.50856		15.77033		0.75966	
	666	0	22	12.95738		16.76307		0.49009	
	667	0	23	12.81902		16.42773		1.55219	
	668	0	24	13.53178		16.20447		2.38991	
	669	0	25	12.74485		17.00406		2.42235	
	670	0	26	13.74695		17.49189		2.29026	
	671	0	27	13.77641		17.99197		1.28592	
	672	0	28	13.00854		18.21991		2.07210	
	673	0	29	11.99669		17.97562		2.49177	
	674	0	30	11.30071		17.18052		2.11352	
	675	0	31	11.02700		18.24024		2.36197	
	676	0	32	11.34422		18.03790		1.30458	
	677	0	33	10.24291		18.13975		1.11380	
	678	0	34	10.25959		17.39749		1.95547	
	679	0	35	10.78483		16.75996		1.19565	
	680	0	36	11.67956		17.12104		0.62230	
	681	0	37	11.26624		16.64262		19.69497	
	682	0	38	12.00654		15.80244		19.77040	
	683	0	39	12.07540		16.38691		18.81473	
	684	0	40	12.76162		17.19280		18.44152	
	685	0	41	13.85476		17.01536		18.62375	
	686	0	42	12.79907		16.87924		18.97959	
	687	0	43	11.85387		16.93835		19.58188	
	688	0	44	12.56618		17.76509		19.31965	
	689	0	45	11.85186		17.64794		0.17736	
	690	0	46	12.92825		17.95850		0.24506	
	691	0	47	13.72026		17.16384		0.27453	
	692	0	48	13.84575		16.52249		19.36208	
	693	0	49	13.21627		15.59332		19.35675	
	694	0	50	12.77939		14.70148		18.83387	
	695	0	51	13.12339		14.66452		17.76619	
	696	0	52	12.48426		13.82989		17.37307	
	697	0	53	12.67682		13.86550		16.26794	
	698	0	54	12.77633		13.78311		15.15306	
	699	0	55	13.43237		14.07998		14.29218	
	700	0	56	13.48069		15.11945		13.87170	
	701	0	57	13.74335		15.79525		14.72841	
	702	0	58	13.13233		15.48648		13.83905	
	703	0	59	12.04250		15.22128		13.87877	
	704	0	60	12.11307		15.71374		12.87272	
	705	0	61	11.54721		15.88190		11.91816	
	706	0	62	11.42584		16.91982		12.32760	
	707	0	63	12.22151		17.01299		13.11365	
	708	0	64	12.39178		16.25877		12.30013	
	709	0	65	12.54586		17.08157		11.55252	
	710	0	66	13.27288		16.93329		10.71044	
	711	0	67	13.12122		18.02502		10.49885	
	712	0	68	12.58086		18.33671		9.56585	
	713	0	69	13.57018		18.86551		9.53044	
	714	0	70	14.41162		19.29464		8.92424	
	715	0	71	15.38724		19.36304		9.47482	
	716	0	72	16.34681		19.94266		9.42088	
	717	0	73	16.53265		18.98009		8.87446	
	718	0	74	16.50420		19.61160		7.94709	
	719	0	75	15.84180		19.21609		7.13196	
	720	0	76	15.83157		18.12505		7.39497	
	721	0	77	15.86445		18.87496		6.56059	
	722	0	78	16.59334		19.58532		6.08755	
	723	0	79	17.47805		18.91352		5.92750	
	724	0	80	16.85945		18.10891		6.40666	
	725	0	81	15.86933		17.70938		6.75262	
	726	0	82	15.78463		16.60301		6.58407	