#-----------------------------------------------------------------------------------           
# NANOPOLY - POLYMER NANOCOMPOSITE STRUCTURAL DATA FILE                                        
#-----------------------------------------------------------------------------------           
# FILENAME:  test_structure.in                                                                  
# DATE: 2020-12-03                                                                                
#-----------------------------------------------------------------------------------           
                                                                                               
40 atoms                                                             
30 bonds                                                             
                                                                                               
3 atom types                                            
1 bond types                                            
                                                                                    
0.0000 1.2120 xlo xhi            
0.0000 1.2120 ylo yhi            
0.0000 1.2120 zlo zhi            
                                                                                    
Masses                                                                              
                                                                                    
1	1.0
2	1.0
3	1.0


Atoms                                                                               

	1	1	1	0.27300		1.14394		0.40276	
	2	1	2	0.94506		0.00838		0.53520	
	3	1	3	0.08362		0.02817		0.09744	
	4	1	1	0.49191		0.86439		0.18107	
	5	2	1	0.44549		0.83402		1.07415	
	6	2	2	0.45819		0.17338		1.17781	
	7	2	3	0.98954		0.14405		0.14390	
	8	2	1	0.08990		1.08870		0.97397	
	9	3	1	0.16671		0.05174		0.91639	
	10	3	2	0.93731		0.91786		0.93753	
	11	3	3	0.08071		0.50642		0.79853	
	12	3	1	0.28185		0.42700		0.28070	
	13	4	1	0.13123		0.43273		1.06345	
	14	4	2	0.18275		0.92072		0.79119	
	15	4	3	0.93119		0.68972		1.00722	
	16	4	1	0.44128		0.79296		0.04867	
	17	5	1	0.44946		1.13285		0.43774	
	18	5	2	0.51272		0.76843		0.01571	
	19	5	3	0.11938		0.40503		0.18343	
	20	5	1	1.18484		0.11824		0.64298	
	21	6	1	0.14163		0.16987		0.52100	
	22	6	2	0.31720		0.91115		0.77100	
	23	6	3	1.17605		0.12996		0.83881	
	24	6	1	0.29605		0.06506		0.07456	
	25	7	1	0.10218		0.39168		1.06427	
	26	7	2	0.29238		1.11151		0.87319	
	27	7	3	0.46688		0.35865		1.14458	
	28	7	1	0.28541		0.53534		0.43334	
	29	8	1	0.07632		0.51875		0.47890	
	30	8	2	0.49583		0.19346		0.66084	
	31	8	3	0.67876		0.70778		0.79093	
	32	8	1	0.12310		0.72446		0.86757	
	33	9	1	0.94566		1.07333		0.63992	
	34	9	2	0.94116		1.19934		0.09310	
	35	9	3	0.16038		1.14373		0.95033	
	36	9	1	0.92451		0.81709		1.03767	
	37	10	1	0.69026		0.57210		0.99265	
	38	10	2	0.33673		0.93906		0.01574	
	39	10	3	0.59166		1.12631		0.76421	
	40	10	1	0.78263		0.41533		0.59861	
Bonds                                                                               
                                                                                    
	1	1	1	2
	2	1	2	3
	3	1	3	4
	4	1	5	6
	5	1	6	7
	6	1	7	8
	7	1	9	10
	8	1	10	11
	9	1	11	12
	10	1	13	14
	11	1	14	15
	12	1	15	16
	13	1	17	18
	14	1	18	19
	15	1	19	20
	16	1	21	22
	17	1	22	23
	18	1	23	24
	19	1	25	26
	20	1	26	27
	21	1	27	28
	22	1	29	30
	23	1	30	31
	24	1	31	32
	25	1	33	34
	26	1	34	35
	27	1	35	36
	28	1	37	38
	29	1	38	39
	30	1	39	40
