#-----------------------------------------------------------------------------------           
# NANOPOLY - POLYMER NANOCOMPOSITE STRUCTURAL DATA FILE                                        
#-----------------------------------------------------------------------------------           
# FILENAME:  test_structure.in                                                                  
# DATE: 2020-12-07                                                                                
#-----------------------------------------------------------------------------------           
                                                                                               
15 atoms                                                             
12 bonds                                                             
                                                                                               
3 atom types                                            
1 bond types                                            
                                                                                    
0.0000 1.2120 xlo xhi            
0.0000 1.2120 ylo yhi            
0.0000 1.2120 zlo zhi            
                                                                                    
Masses                                                                              
                                                                                    
1	1.0
2	1.0
3	1.0


Atoms                                                                               

	1	1	1	1.16489		0.83821		0.52824	
	2	1	2	0.66789		0.78141		0.78255	
	3	1	3	0.40260		0.28739		0.76046	
	4	1	1	0.37564		1.19775		0.02090	
	5	1	2	0.63266		0.81250		0.33781	
	6	2	1	1.15670		1.18048		0.93337	
	7	2	2	1.13500		0.62044		0.96172	
	8	2	3	0.03466		0.20876		0.11435	
	9	2	1	0.87633		0.23322		0.90543	
	10	2	2	0.79962		0.76210		1.07666	
	11	3	1	0.44325		0.97369		0.90012	
	12	3	2	0.77121		0.03107		0.53299	
	13	3	3	0.85571		0.56523		0.38320	
	14	3	1	0.45422		0.39319		0.03090	
	15	3	2	0.67808		0.36513		0.54472	
Bonds                                                                               
                                                                                    
	1	1	1	2
	2	1	2	3
	3	1	3	4
	4	1	4	5
	5	1	6	7
	6	1	7	8
	7	1	8	9
	8	1	9	10
	9	1	11	12
	10	1	12	13
	11	1	13	14
	12	1	14	15
