#-----------------------------------------------------------------------------------           
# NANOPOLY - POLYMER NANOCOMPOSITE STRUCTURAL DATA FILE                                        
#-----------------------------------------------------------------------------------           
# FILENAME:  test_structure.in                                                                  
# DATE: 2020-11-27                                                                                
#-----------------------------------------------------------------------------------           
                                                                                               
45 atoms                                                             
44 bonds                                                             
                                                                                               
3 atom types                                            
1 bond types                                            
                                                                                    
0.0000 1.2120 xlo xhi            
0.0000 1.2120 ylo yhi            
0.0000 1.2120 zlo zhi            
                                                                                    
Masses                                                                              
                                                                                    
1	1.0
2	1.0
3	1.0


Atoms                                                                               

	1	1	1	0.44048		0.88645		0.20341	
	2	1	2	0.23990		0.10469		1.11611	
	3	1	3	0.02457		1.09024		0.65000	
	4	1	1	0.32318		0.65890		0.84921	
	5	1	2	0.75909		1.00422		0.92438	
	6	1	3	1.10556		0.22526		1.01006	
	7	1	1	1.17156		0.78044		0.96183	
	8	1	2	0.95973		0.74090		0.26798	
	9	1	3	0.98354		0.18626		0.18599	
	10	1	1	0.72388		0.16505		0.68302	
	11	1	2	0.06851		0.23593		0.68974	
	12	1	3	0.57199		0.47653		0.63027	
	13	1	1	0.19954		0.49279		0.21083	
	14	1	2	0.34520		0.88838		0.58124	
	15	1	3	0.79813		1.07903		0.31029	
	16	1	1	1.20643		0.79270		0.05296	
	17	1	2	0.72710		0.53139		1.13507	
	18	1	3	0.93718		0.38593		0.63545	
	19	1	1	0.41340		0.23059		0.76368	
	20	1	2	0.10731		0.62097		0.50132	
	21	1	3	1.09569		1.11850		0.36953	
	22	1	1	0.93224		0.70813		0.71563	
	23	1	2	0.70345		0.46433		0.26493	
	24	1	3	0.34035		0.04337		0.18833	
	25	1	1	1.04480		1.05559		0.05644	
	26	1	2	0.72703		0.21888		0.99811	
	27	1	3	0.90254		1.03006		0.64676	
	28	1	1	0.54046		0.16058		0.38891	
	29	1	2	0.50726		1.09946		1.11182	
	30	1	3	1.17960		1.10833		0.95819	
	31	1	1	0.30854		1.20482		0.52303	
	32	1	2	0.60871		0.74032		0.42796	
	33	1	3	0.37741		0.57013		1.15783	
	34	1	1	1.02969		0.54627		1.19027	
	35	1	2	0.11212		0.21692		0.32432	
	36	1	3	1.19108		0.50815		0.78519	
	37	1	1	0.21199		0.95005		1.04091	
	38	1	2	0.72945		0.89360		0.03857	
	39	1	3	0.53327		0.20716		0.02420	
	40	1	1	0.54244		1.13046		0.75507	
	41	1	2	0.31500		0.36834		0.50853	
	42	1	3	0.62982		0.76347		0.75280	
	43	1	1	0.25481		1.17210		0.83830	
	44	1	2	0.13415		0.90890		0.35760	
	45	1	3	1.04425		0.43606		0.34372	
Bonds                                                                               
                                                                                    
	1	1	1	2
	2	1	2	3
	3	1	3	4
	4	1	4	5
	5	1	5	6
	6	1	6	7
	7	1	7	8
	8	1	8	9
	9	1	9	10
	10	1	10	11
	11	1	11	12
	12	1	12	13
	13	1	13	14
	14	1	14	15
	15	1	15	16
	16	1	16	17
	17	1	17	18
	18	1	18	19
	19	1	19	20
	20	1	20	21
	21	1	21	22
	22	1	22	23
	23	1	23	24
	24	1	24	25
	25	1	25	26
	26	1	26	27
	27	1	27	28
	28	1	28	29
	29	1	29	30
	30	1	30	31
	31	1	31	32
	32	1	32	33
	33	1	33	34
	34	1	34	35
	35	1	35	36
	36	1	36	37
	37	1	37	38
	38	1	38	39
	39	1	39	40
	40	1	40	41
	41	1	41	42
	42	1	42	43
	43	1	43	44
	44	1	44	45
