#-----------------------------------------------------------------------------------           
# NANOPOLY - POLYMER NANOCOMPOSITE STRUCTURAL DATA FILE                                        
#-----------------------------------------------------------------------------------           
# FILENAME:  test_structure.in                                                                  
# DATE: 2020-11-20                                                                                
#-----------------------------------------------------------------------------------           
                                                                                               
500 atoms                                                             
499 bonds                                                             
                                                                                               
3 atom types                                            
1 bond types                                            
                                                                                    
0.0000 10.3020 xlo xhi            
0.0000 10.3020 ylo yhi            
0.0000 10.3020 zlo zhi            
                                                                                    
Masses                                                                              
                                                                                    
1	1.0
2	1.0
3	1.0


Atoms                                                                               

	1	1	1	10.05653		4.91116		6.77469	
	2	1	2	10.13474		5.18201		6.28948	
	3	1	3	0.01604		5.69003		6.44187	
	4	1	1	0.18302		5.67416		5.90635	
	5	1	2	0.60683		5.33697		6.05336	
	6	1	3	0.54604		5.08587		5.55520	
	7	1	1	0.30264		4.99593		6.05277	
	8	1	2	0.23153		4.45532		5.92010	
	9	1	3	10.22977		4.53500		5.45503	
	10	1	1	10.13994		4.75430		5.96370	
	11	1	2	10.17165		4.37328		6.37446	
	12	1	3	0.01554		4.14011		6.86360	
	13	1	1	0.27986		4.53569		7.16120	
	14	1	2	0.29637		4.42166		7.71041	
	15	1	3	0.44370		4.78743		8.10968	
	16	1	1	0.56414		5.22622		8.43811	
	17	1	2	0.10944		5.53593		8.32748	
	18	1	3	10.21199		5.09908		8.61781	
	19	1	1	9.71359		5.28000		8.43401	
	20	1	2	9.49717		5.75569		8.22959	
	21	1	3	9.12369		5.39408		8.44093	
	22	1	1	9.14776		5.01861		8.02457	
	23	1	2	8.64956		5.14204		8.25144	
	24	1	3	8.61948		5.60979		7.94287	
	25	1	1	8.41114		5.34557		8.39197	
	26	1	2	8.58627		5.87663		8.34494	
	27	1	3	8.30172		5.66078		8.77777	
	28	1	1	7.85823		5.32575		8.85514	
	29	1	2	7.49902		5.23642		9.27692	
	30	1	3	7.95152		5.56649		9.24224	
	31	1	1	8.20024		5.54228		9.74470	
	32	1	2	8.67445		5.54017		9.44464	
	33	1	3	9.13693		5.85767		9.42963	
	34	1	1	9.13660		5.29703		9.45420	
	35	1	2	9.43586		5.45849		9.90062	
	36	1	3	9.76364		5.35994		0.04332	
	37	1	1	9.53029		5.86326		0.12772	
	38	1	2	9.52776		6.38883		10.23304	
	39	1	3	9.16191		6.77639		0.10673	
	40	1	1	9.06477		7.11415		9.97125	
	41	1	2	8.77656		7.16850		9.49282	
	42	1	3	8.85146		7.32177		10.02743	
	43	1	1	9.07651		6.83886		9.85117	
	44	1	2	8.57458		6.72611		9.62696	
	45	1	3	8.95164		6.43300		9.33229	
	46	1	1	9.49089		6.29174		9.39682	
	47	1	2	9.87556		6.68079		9.52162	
	48	1	3	9.77120		7.18931		9.73477	
	49	1	1	9.32954		7.46661		9.52754	
	50	1	2	8.88199		7.36438		9.20480	
	51	1	3	8.87518		7.15305		8.68499	
	52	1	1	9.38730		7.37619		8.73840	
	53	1	2	9.59668		7.10678		8.29288	
	54	1	3	9.79138		7.07809		7.76735	
	55	1	1	10.10096		6.63125		7.90666	
	56	1	2	10.24972		7.17204		7.88856	
	57	1	3	10.29977		7.70550		7.72174	
	58	1	1	9.81509		7.97435		7.63388	
	59	1	2	9.59924		8.36231		7.97712	
	60	1	3	9.92203		8.32890		8.43494	
	61	1	1	0.05067		8.06635		8.18891	
	62	1	2	0.07956		7.54713		8.39984	
	63	1	3	9.94421		7.42537		8.72970	
	64	1	1	9.77203		6.94434		8.96182	
	65	1	2	10.19141		6.88403		9.32978	
	66	1	3	9.92547		7.37016		9.24108	
	67	1	1	0.09329		7.64509		9.37744	
	68	1	2	0.63537		7.68131		9.23689	
	69	1	3	0.99866		7.95194		9.56808	
	70	1	1	1.11435		8.45551		9.78705	
	71	1	2	1.47436		8.21490		9.43010	
	72	1	3	1.83533		8.13542		9.85236	
	73	1	1	2.39427		8.16377		9.81121	
	74	1	2	2.34298		8.44901		9.33067	
	75	1	3	2.53121		8.59634		8.82296	
	76	1	1	2.19454		9.02802		8.69959	
	77	1	2	2.32732		9.15288		8.16884	
	78	1	3	2.54237		8.85363		7.74562	
	79	1	1	3.05025		8.64272		7.85736	
	80	1	2	2.73075		8.51883		7.41297	
	81	1	3	2.71753		9.06915		7.52196	
	82	1	1	2.30674		9.27811		7.84211	
	83	1	2	2.47556		8.77861		8.03423	
	84	1	3	2.80087		8.34637		7.88507	
	85	1	1	2.26029		8.42423		7.75615	
	86	1	2	2.73955		8.19348		7.57731	
	87	1	3	2.83700		7.77746		7.94109	
	88	1	1	3.28196		7.55002		7.68576	
	89	1	2	2.84533		7.24734		7.50506	
	90	1	3	2.37681		7.55580		7.48895	
	91	1	1	2.08167		7.73342		7.93196	
	92	1	2	2.29265		7.88638		8.42896	
	93	1	3	2.82832		8.03500		8.50568	
	94	1	1	3.35877		7.88216		8.60654	
	95	1	2	3.58496		7.88732		9.12008	
	96	1	3	4.04090		7.73682		9.41057	
	97	1	1	3.90384		7.32618		9.76764	
	98	1	2	4.28262		7.73475		9.83477	
	99	1	3	4.51720		8.11804		10.17087	
	100	1	1	4.03705		8.35662		0.03455	
	101	1	2	3.68557		7.93623		10.21556	
	102	1	3	3.51970		7.40063		10.19240	
	103	1	1	3.44219		7.84951		9.86466	
	104	1	2	3.80073		7.57519		9.53132	
	105	1	3	3.95037		7.74458		10.04496	
	106	1	1	4.38122		7.41938		9.89159	
	107	1	2	4.44549		7.93696		9.68449	
	108	1	3	4.88528		7.93915		9.33594	
	109	1	1	4.78277		8.31747		9.73753	
	110	1	2	4.32083		8.59024		9.57286	
	111	1	3	4.52760		9.08275		9.74489	
	112	1	1	4.60211		9.56561		10.02094	
	113	1	2	4.60602		9.00512		10.04830	
	114	1	3	4.67806		8.46861		10.19622	
	115	1	1	4.51285		8.27987		0.39621	
	116	1	2	4.28866		7.76991		0.32850	
	117	1	3	3.93745		7.67902		0.75663	
	118	1	1	3.53137		7.79063		0.38575	
	119	1	2	3.31543		8.27053		0.58061	
	120	1	3	3.44115		8.79819		0.72443	
	121	1	1	3.67931		8.30152		0.61712	
	122	1	2	3.47867		7.78275		0.69149	
	123	1	3	3.77863		7.74482		0.21874	
	124	1	1	3.47847		7.27231		0.25803	
	125	1	2	3.13032		7.17560		10.13067	
	126	1	3	3.35092		6.75468		9.83222	
	127	1	1	3.54164		7.22463		9.59205	
	128	1	2	3.43957		6.95638		9.10983	
	129	1	3	3.83865		7.01702		9.49967	
	130	1	1	4.31973		7.00867		9.78847	
	131	1	2	4.10930		7.46940		10.03006	
	132	1	3	3.60145		7.54142		9.80245	
	133	1	1	3.11805		7.82543		9.82644	
	134	1	2	2.70900		8.04039		9.50804	
	135	1	3	2.98614		7.79041		9.08898	
	136	1	1	2.61565		7.52102		8.76481	
	137	1	2	2.30322		7.92585		8.99591	
	138	1	3	2.11373		8.31360		8.63722	
	139	1	1	2.00541		8.08728		9.13918	
	140	1	2	1.52173		7.82643		9.02550	
	141	1	3	1.97456		7.49501		9.02993	
	142	1	1	2.24629		7.52576		9.51996	
	143	1	2	1.76945		7.70337		9.75658	
	144	1	3	2.13610		7.43055		10.08223	
	145	1	1	2.32195		7.94896		10.19001	
	146	1	2	1.76528		7.95769		10.26040	
	147	1	3	1.82228		8.00708		0.51448	
	148	1	1	1.74612		8.56157		0.55514	
	149	1	2	1.20499		8.42757		0.49092	
	150	1	3	1.00668		8.94937		0.54840	
	151	1	1	1.10886		8.59215		0.96895	
	152	1	2	1.53794		8.78112		1.27734	
	153	1	3	1.60475		8.99015		0.76086	
	154	1	1	1.55581		8.43137		0.77773	
	155	1	2	1.48066		7.88140		0.69529	
	156	1	3	1.47348		7.49389		0.28946	
	157	1	1	1.68235		7.51980		0.80967	
	158	1	2	1.17822		7.35864		0.99617	
	159	1	3	0.64975		7.45330		1.15949	
	160	1	1	0.28833		7.67098		0.78949	
	161	1	2	0.27603		7.88210		0.26969	
	162	1	3	0.45118		7.98222		0.79334	
	163	1	1	0.85000		8.21024		1.11561	
	164	1	2	1.15764		7.99045		0.70094	
	165	1	3	1.65962		8.13205		0.90801	
	166	1	1	1.91032		8.37190		1.34907	
	167	1	2	2.46542		8.29012		1.33980	
	168	1	3	2.40967		8.77251		1.62105	
	169	1	1	2.88779		8.77100		1.32725	
	170	1	2	2.68728		9.21551		1.60496	
	171	1	3	2.47848		9.66952		1.86028	
	172	1	1	2.22174		9.51274		1.38656	
	173	1	2	1.73916		9.50659		1.10022	
	174	1	3	1.45020		9.63729		0.63726	
	175	1	1	1.48133		9.95914		1.09591	
	176	1	2	1.52664		9.77404		1.62373	
	177	1	3	1.67281		0.00707		1.53838	
	178	1	1	1.98326		0.32530		1.88081	
	179	1	2	1.87143		0.31324		2.43060	
	180	1	3	1.77164		0.86132		2.36304	
	181	1	1	1.98765		0.75833		2.87063	
	182	1	2	1.90935		0.60147		3.40371	
	183	1	3	1.91763		0.48794		3.95321	
	184	1	1	2.29865		0.12933		3.75040	
	185	1	2	1.90548		10.03140		3.77012	
	186	1	3	1.87442		10.18738		4.30828	
	187	1	1	1.88027		0.17337		4.78988	
	188	1	2	1.92019		0.45507		5.27358	
	189	1	3	1.85446		0.91397		5.58981	
	190	1	1	2.31061		1.04042		5.89122	
	191	1	2	2.66241		1.25719		6.27091	
	192	1	3	2.75463		1.76921		6.06058	
	193	1	1	3.22064		1.53013		5.85911	
	194	1	2	3.36151		1.66224		6.38600	
	195	1	3	3.35652		1.25800		5.99681	
	196	1	1	3.12754		1.10440		6.48557	
	197	1	2	3.50877		1.43816		6.72678	
	198	1	3	3.28915		1.19796		7.18393	
	199	1	1	2.95033		1.61271		7.01633	
	200	1	2	2.48534		1.68812		7.32130	
	201	1	3	1.98332		1.80567		7.09979	
	202	1	1	1.66796		2.02397		6.69015	
	203	1	2	1.84165		1.57453		6.40250	
	204	1	3	2.08188		1.28092		5.98898	
	205	1	1	1.55593		1.10035		6.06436	
	206	1	2	1.54314		1.66132		6.07178	
	207	1	3	1.82084		1.25112		6.33547	
	208	1	1	1.58209		1.34921		5.83719	
	209	1	2	1.36067		1.06505		5.40691	
	210	1	3	1.65481		0.68221		5.69297	
	211	1	1	1.90551		0.20548		5.85040	
	212	1	2	1.38897		0.25500		5.63674	
	213	1	3	1.02749		10.28792		5.30233	
	214	1	1	1.03291		0.21725		4.79109	
	215	1	2	0.51903		0.37421		4.62919	
	216	1	3	0.19014		0.16875		4.22356	
	217	1	1	0.11549		0.32956		4.75599	
	218	1	2	9.89510		0.46148		4.91291	
	219	1	3	9.93603		0.29775		5.44810	
	220	1	1	9.98782		0.76728		5.14516	
	221	1	2	9.44636		0.61990		5.14864	
	222	1	3	9.83417		0.86889		4.82847	
	223	1	1	0.01496		0.97789		4.56398	
	224	1	2	0.29753		0.55847		4.32077	
	225	1	3	0.84269		0.43033		4.28471	
	226	1	1	0.89737		0.85587		3.92300	
	227	1	2	0.60820		1.01828		3.47032	
	228	1	3	1.04262		1.30301		3.68272	
	229	1	1	1.17365		1.39535		3.14494	
	230	1	2	1.65570		1.66511		3.24379	
	231	1	3	1.38835		1.34767		2.86608	
	232	1	1	1.01461		1.75030		2.98062	
	233	1	2	0.96245		1.64181		3.52873	
	234	1	3	0.71124		1.92811		3.11661	
	235	1	1	0.88941		1.55345		2.73872	
	236	1	2	1.39178		1.77281		2.85878	
	237	1	3	1.50129		2.28589		3.05796	
	238	1	1	1.88997		2.52368		3.38551	
	239	1	2	1.63304		2.86252		3.75169	
	240	1	3	1.43773		3.38802		3.72692	
	241	1	1	1.85253		3.08619		3.49942	
	242	1	2	1.94098		3.55998		3.78685	
	243	1	3	2.37540		3.50613		4.13799	
	244	1	1	2.76901		3.45637		4.53485	
	245	1	2	2.43023		3.04850		4.35106	
	246	1	3	2.14633		3.08207		4.83395	
	247	1	1	1.60582		2.93374		4.80630	
	248	1	2	1.96443		2.50235		4.79174	
	249	1	3	1.84397		2.88834		5.18086	
	250	1	1	1.29141		2.90731		5.08479	
	251	1	2	0.95961		3.04233		4.65284	
	252	1	3	0.88343		3.59778		4.62857	
	253	1	1	0.40428		3.49437		4.35539	
	254	1	2	0.33034		3.88872		4.74773	
	255	1	3	10.20953		3.89263		5.11669	
	256	1	1	9.86829		4.33528		5.16688	
	257	1	2	10.29249		4.12870		5.47067	
	258	1	3	9.77106		4.31247		5.56687	
	259	1	1	9.26302		4.10802		5.68938	
	260	1	2	9.62906		3.68321		5.66777	
	261	1	3	9.32408		3.86527		5.23331	
	262	1	1	9.43736		3.44128		5.58305	
	263	1	2	8.97435		3.74429		5.67643	
	264	1	3	9.35861		3.75242		6.08533	
	265	1	1	9.04595		3.35443		6.32774	
	266	1	2	8.51277		3.44555		6.47716	
	267	1	3	8.26189		2.95414		6.37476	
	268	1	1	7.76856		3.05276		6.12613	
	269	1	2	7.53572		3.51804		6.33642	
	270	1	3	7.63999		4.03160		6.13569	
	271	1	1	7.69044		4.41367		5.72778	
	272	1	2	8.04543		4.80512		5.91662	
	273	1	3	8.56514		4.61377		6.00715	
	274	1	1	8.96369		4.43593		6.35991	
	275	1	2	9.37859		4.52133		6.72799	
	276	1	3	9.67178		4.10857		6.97002	
	277	1	1	9.67738		4.61293		7.21599	
	278	1	2	9.79191		4.93102		7.66390	
	279	1	3	0.04849		4.94930		7.71461	
	280	1	1	0.07820		4.82025		8.25993	
	281	1	2	10.27597		4.63313		8.77862	
	282	1	3	10.22534		4.74374		9.32645	
	283	1	1	9.79403		5.06485		9.16590	
	284	1	2	9.47301		5.08889		9.62556	
	285	1	3	9.05624		5.08119		10.00126	
	286	1	1	8.92712		5.60369		9.84240	
	287	1	2	8.68784		5.42284		0.01469	
	288	1	3	9.16583		5.41665		0.30863	
	289	1	1	8.74375		5.04963		0.35402	
	290	1	2	9.02629		5.14057		0.83026	
	291	1	3	8.76496		4.75772		1.14656	
	292	1	1	9.30435		4.76902		0.99215	
	293	1	2	9.52885		4.26473		1.09321	
	294	1	3	9.82701		3.84646		1.31916	
	295	1	1	9.58923		3.35404		1.44528	
	296	1	2	9.94366		2.94414		1.29942	
	297	1	3	0.18984		2.85460		1.21946	
	298	1	1	0.02425		3.18689		0.79866	
	299	1	2	0.05223		3.55848		0.37908	
	300	1	3	9.79495		3.60444		0.38228	
	301	1	1	9.27387		3.53133		0.18724	
	302	1	2	9.19519		4.05420		0.37519	
	303	1	3	8.71672		3.99862		0.08728	
	304	1	1	8.80199		3.63133		0.50289	
	305	1	2	8.59111		3.29773		0.90183	
	306	1	3	8.62335		2.81692		0.61426	
	307	1	1	8.90217		2.75158		0.13166	
	308	1	2	9.24776		2.51587		10.05960	
	309	1	3	9.48579		2.41448		0.25557	
	310	1	1	8.98400		2.16497		0.28501	
	311	1	2	8.73861		2.30769		10.10294	
	312	1	3	9.00772		2.79127		10.00997	
	313	1	1	8.50858		2.58125		10.15713	
	314	1	2	8.47195		2.07742		0.09951	
	315	1	3	8.77384		1.75435		10.05597	
	316	1	1	9.05576		1.66327		9.57938	
	317	1	2	9.05490		2.21324		9.46784	
	318	1	3	8.52927		2.35799		9.33487	
	319	1	1	8.48825		2.78565		8.97385	
	320	1	2	8.49161		3.17443		8.56919	
	321	1	3	8.33315		2.63746		8.60742	
	322	1	1	8.07900		2.35479		9.02024	
	323	1	2	8.56034		2.13719		8.83081	
	324	1	3	8.54992		2.52887		8.42908	
	325	1	1	8.91978		2.80264		8.75027	
	326	1	2	8.96071		2.88943		9.30318	
	327	1	3	9.44860		2.76444		9.05569	
	328	1	1	9.70722		2.78525		8.55809	
	329	1	2	9.57273		2.26195		8.40651	
	330	1	3	9.55235		2.45193		7.87887	
	331	1	1	9.43734		2.68628		7.38211	
	332	1	2	9.27774		3.22311		7.34664	
	333	1	3	9.52369		3.49697		6.92306	
	334	1	1	9.31346		3.54416		7.44122	
	335	1	2	8.81873		3.29277		7.52465	
	336	1	3	8.43173		3.61875		7.76729	
	337	1	1	8.23275		3.89493		8.21344	
	338	1	2	8.59717		3.48817		8.34247	
	339	1	3	8.29242		3.01722		8.35813	
	340	1	1	8.26796		2.54257		8.05976	
	341	1	2	8.49165		2.36848		7.57544	
	342	1	3	8.63757		1.83327		7.66011	
	343	1	1	8.10722		2.01152		7.70334	
	344	1	2	8.25613		2.47020		7.41639	
	345	1	3	7.85804		2.53790		7.02671	
	346	1	1	7.86254		3.08191		7.16435	
	347	1	2	7.97679		3.44104		7.58014	
	348	1	3	7.81959		3.97685		7.52439	
	349	1	1	7.37693		4.27231		7.70233	
	350	1	2	6.95340		3.92448		7.82293	
	351	1	3	7.23604		4.15621		8.24876	
	352	1	1	7.66745		4.45579		8.05116	
	353	1	2	8.15113		4.60242		7.80729	
	354	1	3	8.24658		4.42215		8.33008	
	355	1	1	8.21991		3.98593		8.68208	
	356	1	2	8.73237		3.76235		8.63404	
	357	1	3	9.26915		3.63520		8.73706	
	358	1	1	9.27227		3.28982		8.29478	
	359	1	2	8.80871		3.00680		8.15364	
	360	1	3	8.89906		2.93253		7.60479	
	361	1	1	8.70576		2.79355		7.09663	
	362	1	2	9.26192		2.75643		7.03163	
	363	1	3	9.68133		3.12339		6.96567	
	364	1	1	10.13136		2.94892		6.67942	
	365	1	2	9.66560		3.23420		6.55059	
	366	1	3	9.72228		3.57860		6.11117	
	367	1	1	9.95895		3.80166		5.65385	
	368	1	2	10.24785		3.33204		5.75828	
	369	1	3	0.34580		3.50866		5.40650	
	370	1	1	0.69879		3.93720		5.32491	
	371	1	2	0.63063		3.98511		5.87987	
	372	1	3	0.73857		4.38457		5.50080	
	373	1	1	1.01002		4.82590		5.28526	
	374	1	2	1.03603		4.28992		5.44944	
	375	1	3	1.18170		4.56815		5.91450	
	376	1	1	1.66766		4.53085		6.19265	
	377	1	2	1.33392		4.09165		6.29577	
	378	1	3	0.92619		4.32350		6.60384	
	379	1	1	0.57643		4.09439		6.22956	
	380	1	2	0.35180		4.12706		6.74277	
	381	1	3	0.19321		3.59573		6.82908	
	382	1	1	0.31442		3.83829		7.32039	
	383	1	2	0.42791		3.28904		7.33950	
	384	1	3	10.17560		3.26633		7.42401	
	385	1	1	10.28135		2.93466		6.98387	
	386	1	2	9.86626		2.61042		6.79029	
	387	1	3	10.00544		2.79162		7.30284	
	388	1	1	10.27354		2.81044		7.79546	
	389	1	2	0.37648		3.13696		8.00598	
	390	1	3	0.25770		2.60738		8.14863	
	391	1	1	10.25717		2.47246		7.69565	
	392	1	2	0.32303		2.89366		7.74225	
	393	1	3	0.46598		2.96719		8.27990	
	394	1	1	0.90165		3.07306		7.94243	
	395	1	2	1.07191		3.42794		7.54245	
	396	1	3	1.22971		3.21727		7.04684	
	397	1	1	1.28726		2.88019		6.60189	
	398	1	2	1.76520		3.10715		6.41487	
	399	1	3	1.55028		2.63722		6.63369	
	400	1	1	1.33367		3.05970		6.33453	
	401	1	2	1.27255		2.94486		5.78864	
	402	1	3	0.73692		2.87607		5.63607	
	403	1	1	0.35218		3.28176		5.68406	
	404	1	2	10.27496		3.13548		5.29713	
	405	1	3	9.91963		3.55951		5.39118	
	406	1	1	10.29390		3.54099		4.97346	
	407	1	2	0.02940		3.18613		4.54035	
	408	1	3	10.09170		2.70413		4.38182	
	409	1	1	0.07175		2.59481		3.90916	
	410	1	2	9.81996		2.64656		3.83470	
	411	1	3	9.35079		2.37479		3.97937	
	412	1	1	9.48388		2.60953		4.47140	
	413	1	2	9.78542		2.20721		4.72065	
	414	1	3	9.91524		2.53600		5.15649	
	415	1	1	10.06033		2.40251		5.68188	
	416	1	2	0.15109		2.71075		5.42568	
	417	1	3	0.44715		2.64411		5.89772	
	418	1	1	0.29903		3.05041		6.25534	
	419	1	2	0.75482		3.30700		6.45865	
	420	1	3	0.20313		3.35241		6.55079	
	421	1	1	9.98651		3.37864		6.33805	
	422	1	2	9.84876		3.90956		6.21947	
	423	1	3	10.27942		3.58054		6.36501	
	424	1	1	0.02819		3.28166		6.83725	
	425	1	2	0.06909		2.86551		6.46301	
	426	1	3	9.89979		2.60517		6.30485	
	427	1	1	9.74967		2.66586		5.76755	
	428	1	2	9.51593		2.34174		6.16153	
	429	1	3	9.08264		2.69831		6.16702	
	430	1	1	9.40062		2.71913		6.62894	
	431	1	2	9.54832		2.81469		6.09605	
	432	1	3	10.10710		2.76368		6.10454	
	433	1	1	10.17736		2.36898		6.49721	
	434	1	2	10.29170		2.57552		7.00631	
	435	1	3	10.26284		2.02367		7.10397	
	436	1	1	9.85847		1.93149		7.48199	
	437	1	2	9.88733		1.68372		6.97931	
	438	1	3	0.13676		1.70683		6.87786	
	439	1	1	10.10418		1.86029		6.45428	
	440	1	2	9.58094		1.77129		6.27205	
	441	1	3	9.77658		1.71858		5.74874	
	442	1	1	9.26960		1.95915		5.74718	
	443	1	2	9.16999		2.50087		5.85456	
	444	1	3	8.65910		2.63449		6.04445	
	445	1	1	8.30187		2.22320		6.17912	
	446	1	2	8.66923		2.47715		6.51891	
	447	1	3	8.58126		2.93421		6.20543	
	448	1	1	8.48988		3.22517		5.73437	
	449	1	2	8.54034		3.20454		5.17585	
	450	1	3	8.05669		3.36410		5.41152	
	451	1	1	7.69951		3.12452		5.05106	
	452	1	2	8.25666		3.05906		5.03666	
	453	1	3	7.86033		2.75129		4.78543	
	454	1	1	7.39201		2.44373		4.81694	
	455	1	2	7.43241		2.33811		5.36659	
	456	1	3	7.19599		1.83191		5.31382	
	457	1	1	7.18909		2.17352		4.86866	
	458	1	2	7.35390		2.52277		4.46151	
	459	1	3	7.13863		2.00456		4.46667	
	460	1	1	7.27302		1.96335		3.92339	
	461	1	2	7.14045		1.53203		4.25699	
	462	1	3	6.89926		2.00932		4.08690	
	463	1	1	6.38153		2.16720		4.23506	
	464	1	2	6.76997		2.09105		4.63284	
	465	1	3	6.58062		1.61583		4.40213	
	466	1	1	6.07300		1.80454		4.25507	
	467	1	2	5.82979		1.47466		3.87174	
	468	1	3	5.66762		2.00880		3.81424	
	469	1	1	5.40985		2.50502		3.76703	
	470	1	2	5.30448		2.75516		4.25819	
	471	1	3	5.60021		3.14367		4.53481	
	472	1	1	5.52319		3.39093		5.03265	
	473	1	2	5.82764		3.04611		5.35408	
	474	1	3	5.90062		3.60249		5.34886	
	475	1	1	5.76390		3.47711		4.81924	
	476	1	2	6.18852		3.11176		4.85277	
	477	1	3	6.56244		2.72878		5.02137	
	478	1	1	6.56829		2.85004		4.47349	
	479	1	2	6.38077		3.32855		4.69883	
	480	1	3	6.83993		3.64934		4.73314	
	481	1	1	6.38604		3.97932		4.73720	
	482	1	2	6.13679		4.45861		4.88906	
	483	1	3	5.99374		4.23233		4.39587	
	484	1	1	5.70433		4.62829		4.12316	
	485	1	2	5.58267		4.34643		4.59291	
	486	1	3	5.33286		3.87539		4.76793	
	487	1	1	5.16845		3.44318		4.45002	
	488	1	2	5.27709		2.92654		4.64028	
	489	1	3	5.12799		3.36224		4.96097	
	490	1	1	4.92273		2.93693		4.65784	
	491	1	2	4.85351		2.77053		4.12640	
	492	1	3	4.36609		2.97752		4.31210	
	493	1	1	4.57180		3.40829		4.01709	
	494	1	2	4.85461		3.60480		4.46016	
	495	1	3	5.25753		3.50052		4.08374	
	496	1	1	5.03944		4.01077		4.00010	
	497	1	2	4.75917		4.46296		3.82152	
	498	1	3	4.47323		3.98252		3.86972	
	499	1	1	4.18222		3.82007		4.32120	
	500	1	2	4.37176		3.69247		4.83375	
Bonds                                                                               
                                                                                    
	1	1	1	2
	2	1	2	3
	3	1	3	4
	4	1	4	5
	5	1	5	6
	6	1	6	7
	7	1	7	8
	8	1	8	9
	9	1	9	10
	10	1	10	11
	11	1	11	12
	12	1	12	13
	13	1	13	14
	14	1	14	15
	15	1	15	16
	16	1	16	17
	17	1	17	18
	18	1	18	19
	19	1	19	20
	20	1	20	21
	21	1	21	22
	22	1	22	23
	23	1	23	24
	24	1	24	25
	25	1	25	26
	26	1	26	27
	27	1	27	28
	28	1	28	29
	29	1	29	30
	30	1	30	31
	31	1	31	32
	32	1	32	33
	33	1	33	34
	34	1	34	35
	35	1	35	36
	36	1	36	37
	37	1	37	38
	38	1	38	39
	39	1	39	40
	40	1	40	41
	41	1	41	42
	42	1	42	43
	43	1	43	44
	44	1	44	45
	45	1	45	46
	46	1	46	47
	47	1	47	48
	48	1	48	49
	49	1	49	50
	50	1	50	51
	51	1	51	52
	52	1	52	53
	53	1	53	54
	54	1	54	55
	55	1	55	56
	56	1	56	57
	57	1	57	58
	58	1	58	59
	59	1	59	60
	60	1	60	61
	61	1	61	62
	62	1	62	63
	63	1	63	64
	64	1	64	65
	65	1	65	66
	66	1	66	67
	67	1	67	68
	68	1	68	69
	69	1	69	70
	70	1	70	71
	71	1	71	72
	72	1	72	73
	73	1	73	74
	74	1	74	75
	75	1	75	76
	76	1	76	77
	77	1	77	78
	78	1	78	79
	79	1	79	80
	80	1	80	81
	81	1	81	82
	82	1	82	83
	83	1	83	84
	84	1	84	85
	85	1	85	86
	86	1	86	87
	87	1	87	88
	88	1	88	89
	89	1	89	90
	90	1	90	91
	91	1	91	92
	92	1	92	93
	93	1	93	94
	94	1	94	95
	95	1	95	96
	96	1	96	97
	97	1	97	98
	98	1	98	99
	99	1	99	100
	100	1	100	101
	101	1	101	102
	102	1	102	103
	103	1	103	104
	104	1	104	105
	105	1	105	106
	106	1	106	107
	107	1	107	108
	108	1	108	109
	109	1	109	110
	110	1	110	111
	111	1	111	112
	112	1	112	113
	113	1	113	114
	114	1	114	115
	115	1	115	116
	116	1	116	117
	117	1	117	118
	118	1	118	119
	119	1	119	120
	120	1	120	121
	121	1	121	122
	122	1	122	123
	123	1	123	124
	124	1	124	125
	125	1	125	126
	126	1	126	127
	127	1	127	128
	128	1	128	129
	129	1	129	130
	130	1	130	131
	131	1	131	132
	132	1	132	133
	133	1	133	134
	134	1	134	135
	135	1	135	136
	136	1	136	137
	137	1	137	138
	138	1	138	139
	139	1	139	140
	140	1	140	141
	141	1	141	142
	142	1	142	143
	143	1	143	144
	144	1	144	145
	145	1	145	146
	146	1	146	147
	147	1	147	148
	148	1	148	149
	149	1	149	150
	150	1	150	151
	151	1	151	152
	152	1	152	153
	153	1	153	154
	154	1	154	155
	155	1	155	156
	156	1	156	157
	157	1	157	158
	158	1	158	159
	159	1	159	160
	160	1	160	161
	161	1	161	162
	162	1	162	163
	163	1	163	164
	164	1	164	165
	165	1	165	166
	166	1	166	167
	167	1	167	168
	168	1	168	169
	169	1	169	170
	170	1	170	171
	171	1	171	172
	172	1	172	173
	173	1	173	174
	174	1	174	175
	175	1	175	176
	176	1	176	177
	177	1	177	178
	178	1	178	179
	179	1	179	180
	180	1	180	181
	181	1	181	182
	182	1	182	183
	183	1	183	184
	184	1	184	185
	185	1	185	186
	186	1	186	187
	187	1	187	188
	188	1	188	189
	189	1	189	190
	190	1	190	191
	191	1	191	192
	192	1	192	193
	193	1	193	194
	194	1	194	195
	195	1	195	196
	196	1	196	197
	197	1	197	198
	198	1	198	199
	199	1	199	200
	200	1	200	201
	201	1	201	202
	202	1	202	203
	203	1	203	204
	204	1	204	205
	205	1	205	206
	206	1	206	207
	207	1	207	208
	208	1	208	209
	209	1	209	210
	210	1	210	211
	211	1	211	212
	212	1	212	213
	213	1	213	214
	214	1	214	215
	215	1	215	216
	216	1	216	217
	217	1	217	218
	218	1	218	219
	219	1	219	220
	220	1	220	221
	221	1	221	222
	222	1	222	223
	223	1	223	224
	224	1	224	225
	225	1	225	226
	226	1	226	227
	227	1	227	228
	228	1	228	229
	229	1	229	230
	230	1	230	231
	231	1	231	232
	232	1	232	233
	233	1	233	234
	234	1	234	235
	235	1	235	236
	236	1	236	237
	237	1	237	238
	238	1	238	239
	239	1	239	240
	240	1	240	241
	241	1	241	242
	242	1	242	243
	243	1	243	244
	244	1	244	245
	245	1	245	246
	246	1	246	247
	247	1	247	248
	248	1	248	249
	249	1	249	250
	250	1	250	251
	251	1	251	252
	252	1	252	253
	253	1	253	254
	254	1	254	255
	255	1	255	256
	256	1	256	257
	257	1	257	258
	258	1	258	259
	259	1	259	260
	260	1	260	261
	261	1	261	262
	262	1	262	263
	263	1	263	264
	264	1	264	265
	265	1	265	266
	266	1	266	267
	267	1	267	268
	268	1	268	269
	269	1	269	270
	270	1	270	271
	271	1	271	272
	272	1	272	273
	273	1	273	274
	274	1	274	275
	275	1	275	276
	276	1	276	277
	277	1	277	278
	278	1	278	279
	279	1	279	280
	280	1	280	281
	281	1	281	282
	282	1	282	283
	283	1	283	284
	284	1	284	285
	285	1	285	286
	286	1	286	287
	287	1	287	288
	288	1	288	289
	289	1	289	290
	290	1	290	291
	291	1	291	292
	292	1	292	293
	293	1	293	294
	294	1	294	295
	295	1	295	296
	296	1	296	297
	297	1	297	298
	298	1	298	299
	299	1	299	300
	300	1	300	301
	301	1	301	302
	302	1	302	303
	303	1	303	304
	304	1	304	305
	305	1	305	306
	306	1	306	307
	307	1	307	308
	308	1	308	309
	309	1	309	310
	310	1	310	311
	311	1	311	312
	312	1	312	313
	313	1	313	314
	314	1	314	315
	315	1	315	316
	316	1	316	317
	317	1	317	318
	318	1	318	319
	319	1	319	320
	320	1	320	321
	321	1	321	322
	322	1	322	323
	323	1	323	324
	324	1	324	325
	325	1	325	326
	326	1	326	327
	327	1	327	328
	328	1	328	329
	329	1	329	330
	330	1	330	331
	331	1	331	332
	332	1	332	333
	333	1	333	334
	334	1	334	335
	335	1	335	336
	336	1	336	337
	337	1	337	338
	338	1	338	339
	339	1	339	340
	340	1	340	341
	341	1	341	342
	342	1	342	343
	343	1	343	344
	344	1	344	345
	345	1	345	346
	346	1	346	347
	347	1	347	348
	348	1	348	349
	349	1	349	350
	350	1	350	351
	351	1	351	352
	352	1	352	353
	353	1	353	354
	354	1	354	355
	355	1	355	356
	356	1	356	357
	357	1	357	358
	358	1	358	359
	359	1	359	360
	360	1	360	361
	361	1	361	362
	362	1	362	363
	363	1	363	364
	364	1	364	365
	365	1	365	366
	366	1	366	367
	367	1	367	368
	368	1	368	369
	369	1	369	370
	370	1	370	371
	371	1	371	372
	372	1	372	373
	373	1	373	374
	374	1	374	375
	375	1	375	376
	376	1	376	377
	377	1	377	378
	378	1	378	379
	379	1	379	380
	380	1	380	381
	381	1	381	382
	382	1	382	383
	383	1	383	384
	384	1	384	385
	385	1	385	386
	386	1	386	387
	387	1	387	388
	388	1	388	389
	389	1	389	390
	390	1	390	391
	391	1	391	392
	392	1	392	393
	393	1	393	394
	394	1	394	395
	395	1	395	396
	396	1	396	397
	397	1	397	398
	398	1	398	399
	399	1	399	400
	400	1	400	401
	401	1	401	402
	402	1	402	403
	403	1	403	404
	404	1	404	405
	405	1	405	406
	406	1	406	407
	407	1	407	408
	408	1	408	409
	409	1	409	410
	410	1	410	411
	411	1	411	412
	412	1	412	413
	413	1	413	414
	414	1	414	415
	415	1	415	416
	416	1	416	417
	417	1	417	418
	418	1	418	419
	419	1	419	420
	420	1	420	421
	421	1	421	422
	422	1	422	423
	423	1	423	424
	424	1	424	425
	425	1	425	426
	426	1	426	427
	427	1	427	428
	428	1	428	429
	429	1	429	430
	430	1	430	431
	431	1	431	432
	432	1	432	433
	433	1	433	434
	434	1	434	435
	435	1	435	436
	436	1	436	437
	437	1	437	438
	438	1	438	439
	439	1	439	440
	440	1	440	441
	441	1	441	442
	442	1	442	443
	443	1	443	444
	444	1	444	445
	445	1	445	446
	446	1	446	447
	447	1	447	448
	448	1	448	449
	449	1	449	450
	450	1	450	451
	451	1	451	452
	452	1	452	453
	453	1	453	454
	454	1	454	455
	455	1	455	456
	456	1	456	457
	457	1	457	458
	458	1	458	459
	459	1	459	460
	460	1	460	461
	461	1	461	462
	462	1	462	463
	463	1	463	464
	464	1	464	465
	465	1	465	466
	466	1	466	467
	467	1	467	468
	468	1	468	469
	469	1	469	470
	470	1	470	471
	471	1	471	472
	472	1	472	473
	473	1	473	474
	474	1	474	475
	475	1	475	476
	476	1	476	477
	477	1	477	478
	478	1	478	479
	479	1	479	480
	480	1	480	481
	481	1	481	482
	482	1	482	483
	483	1	483	484
	484	1	484	485
	485	1	485	486
	486	1	486	487
	487	1	487	488
	488	1	488	489
	489	1	489	490
	490	1	490	491
	491	1	491	492
	492	1	492	493
	493	1	493	494
	494	1	494	495
	495	1	495	496
	496	1	496	497
	497	1	497	498
	498	1	498	499
	499	1	499	500
