#-----------------------------------------------------------------------------------           
# NANOPOLY - POLYMER NANOCOMPOSITE STRUCTURAL DATA FILE                                        
#-----------------------------------------------------------------------------------           
# FILENAME:  test_structure.in                                                                  
# DATE: 2020-10-13                                                                                
#-----------------------------------------------------------------------------------           
                                                                                               
600 atoms                                                             
495 bonds                                                             
                                                                                               
4 atom types                                            
1 bond types                                            
                                                                                    
0.0000 20.0000 xlo xhi            
0.0000 20.0000 ylo yhi            
0.0000 20.0000 zlo zhi            
                                                                                    
Masses                                                                              
                                                                                    
1	1.0
2	1.0
3	1.0
4	3.0


Atoms                                                                               

	1	0	1	9.01088		18.07886		0.70237	
	2	0	2	10.02833		17.86255		0.28087	
	3	0	3	10.10617		17.24182		1.21269	
	4	0	1	9.49562		17.82561		1.95164	
	5	0	2	9.03186		18.74858		1.51265	
	6	0	3	9.66225		18.96960		0.61075	
	7	0	1	9.18421		18.83008		19.60494	
	8	0	2	8.43307		19.62384		19.86065	
	9	0	3	8.50321		19.45717		0.96833	
	10	0	1	7.87758		0.37927		0.83425	
	11	0	2	6.81957		0.18425		1.15397	
	12	0	3	6.32589		19.22103		0.85710	
	13	0	1	6.93486		18.61970		1.58319	
	14	0	2	5.82907		18.50701		1.42774	
	15	0	3	5.53328		17.51330		1.85751	
	16	0	1	5.41730		16.74423		1.04836	
	17	0	2	4.34573		16.50686		1.28299	
	18	0	3	4.63500		16.15819		2.30983	
	19	0	1	4.18463		16.51821		3.27274	
	20	0	2	5.07993		16.35947		2.61480	
	21	0	3	6.05980		16.38798		2.06829	
	22	0	1	5.88600		15.32036		1.76894	
	23	0	2	6.04999		14.21571		1.65711	
	24	0	3	5.61488		15.02019		2.30760	
	25	0	1	6.05600		14.81640		3.31930	
	26	0	2	6.29912		14.35838		4.31467	
	27	0	3	7.33139		14.78609		4.20922	
	28	0	1	7.00605		13.80099		3.78101	
	29	0	2	6.98726		12.94500		3.05535	
	30	0	3	7.61949		12.83044		2.13512	
	31	0	1	7.78511		13.92808		2.30065	
	32	0	2	7.09421		13.61888		3.12932	
	33	0	3	8.05654		13.70050		3.70107	
	34	0	1	8.01480		14.56351		2.98475	
	35	0	2	8.03473		14.89673		4.05630	
	36	0	3	8.79660		14.63011		4.83611	
	37	0	1	9.27129		15.64076		4.72252	
	38	0	2	10.12797		16.19635		5.18843	
	39	0	3	9.09529		16.34477		5.60217	
	40	0	1	8.52782		15.81594		4.79102	
	41	0	2	8.81514		15.44344		3.77203	
	42	0	3	9.25910		15.44580		2.74123	
	43	0	1	8.52048		16.26766		2.54471	
	44	0	2	7.61237		15.85599		2.02942	
	45	0	3	8.08931		15.90528		3.04419	
	46	0	1	8.45746		14.96842		3.54058	
	47	0	2	9.07725		15.88720		3.71759	
	48	0	3	8.65273		16.87905		3.40828	
	49	0	1	8.72797		17.91693		2.98782	
	50	0	2	9.07516		18.44128		2.05821	
	51	0	3	9.88696		17.69418		2.26427	
	52	0	1	10.56090		17.91525		3.13409	
	53	0	2	11.40584		17.49641		3.74262	
	54	0	3	11.55007		16.56391		4.35032	
	55	0	1	11.51832		15.49640		4.00527	
	56	0	2	11.81424		15.13431		5.02556	
	57	0	3	12.14899		16.11558		5.45532	
	58	0	1	11.19765		15.61971		5.12560	
	59	0	2	11.98642		15.58649		4.32786	
	60	0	3	12.96166		16.11091		4.51097	
	61	0	1	13.46971		15.11376		4.59595	
	62	0	2	13.93855		15.93456		3.99088	
	63	0	3	13.86123		15.35327		4.94784	
	64	0	1	14.65974		16.14021		4.89535	
	65	0	2	14.52539		15.07738		5.23000	
	66	0	3	14.21406		15.99941		4.67092	
	67	0	1	15.04323		16.75431		4.62357	
	68	0	2	15.38859		16.93577		5.67592	
	69	0	3	16.11220		17.52411		6.30032	
	70	0	1	17.18419		17.71224		6.57438	
	71	0	2	16.35933		17.91627		7.30760	
	72	0	3	16.02648		18.62967		8.10755	
	73	0	1	15.81197		18.49276		7.01445	
	74	0	2	16.32660		19.46780		6.80442	
	75	0	3	15.48675		18.74000		6.64755	
	76	0	1	14.68125		18.85022		7.42128	
	77	0	2	14.72828		17.73938		7.57447	
	78	0	3	15.04514		18.69268		8.07494	
	79	0	1	14.00027		18.98714		7.79002	
	80	0	2	13.75299		18.08258		7.17336	
	81	0	3	12.84411		18.74004		7.20986	
	82	0	1	12.03892		18.52288		7.96096	
	83	0	2	11.58596		19.34237		7.34216	
	84	0	3	12.16670		18.40367		7.13910	
	85	0	1	11.95146		19.48912		6.95170	
	86	0	2	10.95976		19.95789		7.18929	
	87	0	3	11.76879		0.49969		6.63110	
	88	0	1	10.75572		0.68861		7.07567	
	89	0	2	9.70184		0.63808		6.69299	
	90	0	3	10.28471		19.95058		6.02421	
	91	0	1	10.77339		19.24849		5.29764	
	92	0	2	10.18934		18.38713		5.71787	
	93	0	3	10.35420		18.66260		6.79332	
	94	0	1	9.23846		18.62941		6.67642	
	95	0	2	10.02115		19.17884		7.26394	
	96	0	3	10.82299		18.78661		7.94428	
	97	0	1	11.49863		19.22935		8.72346	
	98	0	2	11.99976		19.04837		9.71127	
	99	0	3	12.01033		18.40879		10.63348	
	100	0	1	11.16470		18.07061		9.97759	
	101	1	1	2.38799		18.14261		3.61753	
	102	1	2	2.68280		18.13843		2.53461	
	103	1	3	2.99660		17.06113		2.50984	
	104	1	1	4.03363		16.63334		2.54465	
	105	1	2	4.65332		17.47374		2.95619	
	106	1	3	5.68893		17.05743		2.83852	
	107	1	1	5.90407		17.57584		3.81043	
	108	1	2	5.48286		18.33072		3.09461	
	109	1	3	4.50061		18.83455		3.29703	
	110	1	1	5.33360		19.52029		2.98794	
	111	1	2	6.43971		19.35790		2.88896	
	112	1	3	6.08243		0.04489		3.70140	
	113	1	1	5.87881		0.13222		4.80165	
	114	1	2	5.94575		19.23585		5.47372	
	115	1	3	5.79176		19.46568		4.38601	
	116	1	1	6.56474		18.65202		4.39607	
	117	1	2	7.25756		18.41903		3.54440	
	118	1	3	6.50703		18.80199		2.80299	
	119	1	1	6.12989		18.03040		2.08045	
	120	1	2	6.17114		16.91098		2.14991	
	121	1	3	5.89149		15.92129		1.70051	
	122	1	1	5.32972		14.95833		1.83000	
	123	1	2	5.47676		14.30399		0.93007	
	124	1	3	5.38658		13.60449		0.05702	
	125	1	1	5.91466		13.22291		19.14314	
	126	1	2	4.92223		12.70578		19.22864	
	127	1	3	4.33204		13.65595		19.32088	
	128	1	1	4.59181		13.56640		18.23269	
	129	1	2	4.24695		14.04542		17.27809	
	130	1	3	3.89520		13.79291		16.24264	
	131	1	1	4.60732		14.25111		16.97925	
	132	1	2	3.61046		14.72634		17.17943	
	133	1	3	2.57797		14.31971		17.34751	
	134	1	1	2.49739		15.28606		17.91259	
	135	1	2	3.18336		14.40753		18.04399	
	136	1	3	3.35314		14.78945		19.08560	
	137	1	1	3.54663		14.86722		0.18840	
	138	1	2	4.04232		13.91648		19.85670	
	139	1	3	3.58069		12.97100		0.24736	
	140	1	1	2.82559		12.61530		19.49706	
	141	1	2	3.07030		13.64321		19.87542	
	142	1	3	3.05714		14.75989		19.98720	
	143	1	1	3.71281		14.43442		0.83797	
	144	1	2	2.80883		13.90132		0.44013	
	145	1	3	2.56270		13.25819		1.32639	
	146	1	1	2.95176		12.23352		1.08487	
	147	1	2	2.04454		12.48026		0.47192	
	148	1	3	1.43602		13.41932		0.55871	
	149	1	1	0.69293		13.14352		19.76411	
	150	1	2	1.57290		12.79276		0.36599	
	151	1	3	0.96319		12.30183		1.17029	
	152	1	1	0.57042		12.53782		2.19483	
	153	1	2	19.82872		13.30776		2.53647	
	154	1	3	0.85799		12.90648		2.73453	
	155	1	1	0.39943		12.14377		3.41838	
	156	1	2	19.96654		12.56360		4.36495	
	157	1	3	0.51743		12.81612		3.42029	
	158	1	1	0.06283		13.84134		3.46388	
	159	1	2	1.00909		14.43730		3.36862	
	160	1	3	0.23774		14.82271		2.65019	
	161	1	1	19.21388		15.07252		2.26428	
	162	1	2	18.78081		14.26644		1.61441	
	163	1	3	18.21764		14.95459		0.92962	
	164	1	1	17.85577		13.94369		0.60285	
	165	1	2	18.65531		14.48787		0.03341	
	166	1	3	17.58185		14.30705		0.30663	
	167	1	1	17.63715		15.19260		0.99394	
	168	1	2	17.83707		14.23214		1.53909	
	169	1	3	16.78451		14.53378		1.29254	
	170	1	1	17.48018		13.74079		0.90930	
	171	1	2	16.88549		13.61962		19.96522	
	172	1	3	16.68500		12.73209		0.62229	
	173	1	1	16.78102		11.89817		1.36727	
	174	1	2	16.79238		10.78074		1.47151	
	175	1	3	17.51821		10.91473		0.62601	
	176	1	1	16.65790		11.49021		1.05998	
	177	1	2	15.58677		11.80531		1.17419	
	178	1	3	14.86152		12.07635		1.98672	
	179	1	1	15.95117		11.84881		1.84342	
	180	1	2	15.55363		12.40901		2.73099	
	181	1	3	15.56262		13.16534		3.56017	
	182	1	1	14.69927		13.88217		3.53937	
	183	1	2	15.16148		13.22905		2.75232	
	184	1	3	16.12868		12.78745		3.11172	
	185	1	1	17.18147		12.64423		3.47333	
	186	1	2	17.35546		13.75291		3.48784	
	187	1	3	18.39561		13.45998		3.18463	
	188	1	1	17.93020		14.47821		3.26362	
	189	1	2	17.67333		15.02324		2.31672	
	190	1	3	17.52337		13.93199		2.10145	
	191	1	1	17.07010		13.99949		1.07693	
	192	1	2	17.51940		14.64380		1.87857	
	193	1	3	18.23267		15.32105		1.33800	
	194	1	1	19.13903		15.05319		0.73267	
	195	1	2	19.19371		15.71519		19.82801	
	196	1	3	19.68797		14.73868		19.57944	
	197	1	1	18.87078		14.02814		19.28450	
	198	1	2	19.91871		13.78329		18.96582	
	199	1	3	19.22768		14.63772		19.19401	
	200	1	1	18.15612		14.96925		19.15525	
	201	2	1	16.66853		5.75162		12.79375	
	202	2	2	17.77525		5.56516		12.78624	
	203	2	3	17.32554		5.53127		11.75849	
	204	2	1	16.77132		5.50812		10.78281	
	205	2	2	17.55604		5.14187		11.49675	
	206	2	3	17.90283		4.69806		12.46754	
	207	2	1	18.87313		5.20548		12.71391	
	208	2	2	17.82110		4.96723		13.02395	
	209	2	3	17.54516		3.93656		12.67576	
	210	2	1	16.61959		4.25365		12.12583	
	211	2	2	15.91497		3.41718		12.37777	
	212	2	3	16.13167		2.35221		12.65803	
	213	2	1	15.56260		1.76133		13.42396	
	214	2	2	16.20370		0.94906		13.85854	
	215	2	3	17.11178		0.30890		14.01744	
	216	2	1	18.03570		19.88087		13.54543	
	217	2	2	17.37428		0.50139		12.88427	
	218	2	3	18.25949		0.53863		12.19532	
	219	2	1	18.88784		1.41709		12.50053	
	220	2	2	18.50402		0.47001		12.96462	
	221	2	3	19.45880		0.73780		12.43895	
	222	2	1	18.76323		19.87146		12.59797	
	223	2	2	19.15673		19.24076		11.75713	
	224	2	3	19.63482		0.18524		11.38426	
	225	2	1	0.17211		1.01752		11.91178	
	226	2	2	1.10418		0.92334		11.29371	
	227	2	3	0.15416		0.99036		10.69990	
	228	2	1	19.04697		1.10062		10.55285	
	229	2	2	19.13761		0.44560		9.64600	
	230	2	3	19.68316		19.63094		10.19221	
	231	2	1	0.74583		19.26996		10.18342	
	232	2	2	19.86223		19.12516		9.50671	
	233	2	3	0.64075		18.58307		10.10644	
	234	2	1	1.33917		19.45915		10.04062	
	235	2	2	1.10316		19.11196		11.08148	
	236	2	3	0.76223		18.88401		12.12621	
	237	2	1	1.46084		18.26452		12.74896	
	238	2	2	2.26509		18.10046		13.51442	
	239	2	3	1.85585		18.42056		14.50926	
	240	2	1	2.88639		18.69535		14.15980	
	241	2	2	1.81877		18.99532		14.33255	
	242	2	3	1.63946		18.66573		13.27478	
	243	2	1	1.37515		17.73330		12.70877	
	244	2	2	0.32589		17.73695		12.31043	
	245	2	3	19.82687		16.80618		12.69029	
	246	2	1	19.27317		17.76934		12.84966	
	247	2	2	19.12501		17.47465		13.92244	
	248	2	3	18.08733		17.80016		14.19976	
	249	2	1	17.76801		18.42945		13.32701	
	250	2	2	18.72148		18.95886		13.06190	
	251	2	3	18.11141		19.76787		12.57924	
	252	2	1	18.75385		19.80533		11.65972	
	253	2	2	19.32561		0.66684		11.22320	
	254	2	3	18.45653		0.57589		10.51888	
	255	2	1	19.24771		1.15458		11.06549	
	256	2	2	18.32877		1.69251		10.71077	
	257	2	3	19.04210		2.55565		10.63464	
	258	2	1	19.85569		1.96117		10.14035	
	259	2	2	0.63335		2.62786		9.68163	
	260	2	3	1.20394		2.10010		10.49129	
	261	2	1	0.77868		1.09050		10.73520	
	262	2	2	1.73909		1.02124		10.15860	
	263	2	3	1.13437		1.68224		9.48255	
	264	2	1	0.83081		2.30617		8.60039	
	265	2	2	0.92803		1.20525		8.40499	
	266	2	3	0.83066		1.64579		7.37733	
	267	2	1	19.87610		1.22594		7.79228	
	268	2	2	19.89929		1.88102		6.88124	
	269	2	3	18.80426		2.11471		6.80411	
	270	2	1	19.49881		2.99162		6.71318	
	271	2	2	19.56848		3.31267		7.78636	
	272	2	3	19.41623		4.16890		7.07689	
	273	2	1	19.02792		3.22464		7.54297	
	274	2	2	18.09587		3.74112		7.89536	
	275	2	3	19.10618		3.94630		7.45173	
	276	2	1	19.01013		3.65134		8.53035	
	277	2	2	19.08318		4.01690		9.58897	
	278	2	3	19.27873		4.04029		10.69389	
	279	2	1	19.29419		5.15064		10.53101	
	280	2	2	18.62609		4.61792		11.25869	
	281	2	3	19.05481		4.10192		12.15846	
	282	2	1	19.36809		4.68385		11.25134	
	283	2	2	19.49441		4.31689		12.30444	
	284	2	3	0.13314		3.89227		13.12382	
	285	2	1	1.20003		3.83512		13.46751	
	286	2	2	1.51377		4.89813		13.29078	
	287	2	3	2.30301		5.59492		12.90191	
	288	2	1	1.70777		5.29479		13.80482	
	289	2	2	0.67617		4.85307		13.78674	
	290	2	3	0.73170		3.89475		13.20520	
	291	2	1	0.77347		4.43534		14.18789	
	292	2	2	1.17148		5.05144		15.03739	
	293	2	3	0.35761		5.30966		15.76580	
	294	2	1	0.01333		5.15834		14.70834	
	295	2	2	19.64680		4.43579		15.48501	
	296	2	3	19.00492		3.54745		15.24316	
	297	2	1	19.45348		2.85344		14.48369	
	298	2	2	18.91910		3.82661		14.64810	
	299	2	3	19.43360		2.89949		15.01604	
	300	2	1	19.27949		2.83631		16.12595	
	301	3	1	2.06165		9.41521		2.76126	
	302	3	2	2.04553		8.71181		1.88684	
	303	3	3	1.51573		7.88413		1.34471	
	304	3	1	1.74940		8.34449		2.34126	
	305	3	2	2.81415		8.20038		2.66556	
	306	3	3	3.12196		7.26370		3.20179	
	307	3	1	4.05199		7.11687		3.81263	
	308	3	2	4.36761		8.18125		3.97732	
	309	3	3	4.86610		7.51549		3.22372	
	310	3	1	5.67933		7.42182		3.99153	
	311	3	2	6.15903		7.05303		3.04626	
	312	3	3	6.92260		7.28780		3.83461	
	313	3	1	7.16058		8.38460		3.82779	
	314	3	2	7.62758		7.93230		4.74266	
	315	3	3	7.72410		6.82123		4.61678	
	316	3	1	8.16495		5.90076		5.08372	
	317	3	2	8.86678		5.02508		5.10017	
	318	3	3	8.24986		4.30016		4.50556	
	319	3	1	7.96577		5.21021		5.09782	
	320	3	2	7.62682		5.12366		6.16424	
	321	3	3	6.65056		5.62305		5.92513	
	322	3	1	6.96602		6.68995		5.77727	
	323	3	2	7.10999		6.53393		4.67519	
	324	3	3	6.03706		6.22170		4.57032	
	325	3	1	6.02226		6.89277		5.46981	
	326	3	2	5.95767		7.88358		5.99305	
	327	3	3	5.03122		8.49795		5.83848	
	328	3	1	4.91068		8.32105		6.94022	
	329	3	2	4.76123		9.03088		6.08380	
	330	3	3	5.43759		8.16421		6.30980	
	331	3	1	5.49430		7.09123		5.98553	
	332	3	2	5.01451		6.25451		6.55941	
	333	3	3	5.90573		6.35568		5.88477	
	334	3	1	6.61942		6.25138		6.74466	
	335	3	2	5.90988		5.75966		6.02744	
	336	3	3	6.36803		4.79234		6.36513	
	337	3	1	5.46291		4.84659		5.70372	
	338	3	2	6.06865		4.57884		4.79760	
	339	3	3	6.89985		4.32287		4.08822	
	340	3	1	6.59127		5.05642		3.29682	
	341	3	2	5.88428		4.18504		3.31956	
	342	3	3	6.08358		3.09187		3.16178	
	343	3	1	5.96049		2.94402		4.26751	
	344	3	2	5.31830		2.15904		4.74819	
	345	3	3	5.58543		3.17664		5.13906	
	346	3	1	6.23712		2.29418		4.90195	
	347	3	2	5.50737		2.35784		4.05162	
	348	3	3	4.83263		2.74714		4.85960	
	349	3	1	5.31490		2.91599		5.85887	
	350	3	2	4.25804		2.73478		5.52742	
	351	3	3	3.75034		2.87377		4.53617	
	352	3	1	4.15253		3.70668		5.17190	
	353	3	2	3.07493		3.46180		4.97578	
	354	3	3	2.22323		2.77021		5.21233	
	355	3	1	3.25676		2.92494		5.62163	
	356	3	2	3.23412		1.84265		5.32535	
	357	3	3	3.08598		0.73603		5.43973	
	358	3	1	2.70394		19.84885		4.86823	
	359	3	2	2.18659		0.04003		3.89076	
	360	3	3	1.33458		0.38021		4.53730	
	361	3	1	0.44076		0.00407		5.10233	
	362	3	2	19.38629		19.97426		4.71913	
	363	3	3	19.86680		19.72009		3.73721	
	364	3	1	0.87367		19.95442		4.17419	
	365	3	2	0.84708		18.89290		3.81071	
	366	3	3	1.85292		18.45908		4.05510	
	367	3	1	2.67305		18.57479		4.81250	
	368	3	2	3.33595		19.40093		4.44139	
	369	3	3	3.20437		18.53845		3.73537	
	370	3	1	3.96661		19.02736		3.07233	
	371	3	2	3.62322		18.09120		2.55722	
	372	3	3	4.33935		18.43187		1.76302	
	373	3	1	3.54300		17.98056		1.11356	
	374	3	2	3.76590		17.50428		2.10509	
	375	3	3	4.62752		16.90845		1.70229	
	376	3	1	5.73660		17.08022		1.71068	
	377	3	2	5.26249		16.09997		1.43868	
	378	3	3	6.11588		16.51923		0.84236	
	379	3	1	6.94099		16.08259		1.46541	
	380	3	2	7.26835		15.08666		1.86616	
	381	3	3	7.55831		15.38703		0.82436	
	382	3	1	7.02286		16.01397		0.06285	
	383	3	2	6.15938		15.96486		19.34756	
	384	3	3	6.86389		16.82393		19.50667	
	385	3	1	7.09174		17.07381		0.57685	
	386	3	2	7.60116		17.71541		1.34399	
	387	3	3	8.02804		16.88567		0.72034	
	388	3	1	7.78487		16.68674		1.79781	
	389	3	2	6.93426		17.41779		1.83884	
	390	3	3	6.51821		18.41471		2.14331	
	391	3	1	6.78192		18.21478		1.07087	
	392	3	2	6.32614		18.86724		1.86220	
	393	3	3	6.74845		18.87192		0.82236	
	394	3	1	5.69998		18.56182		0.56896	
	395	3	2	5.07799		18.48834		1.50030	
	396	3	3	4.55216		17.50254		1.60682	
	397	3	1	3.64817		17.15767		1.03805	
	398	3	2	4.09409		18.11597		1.41548	
	399	3	3	3.54732		19.01668		1.02895	
	400	3	1	2.48034		18.67234		1.08029	
	401	4	1	8.26843		14.35640		7.33431	
	402	4	2	8.38829		13.83833		6.34593	
	403	4	3	9.44045		13.79086		5.95816	
	404	4	1	9.13043		14.85141		6.15509	
	405	4	2	8.52824		15.33837		5.34276	
	406	4	3	8.45070		15.69198		6.40511	
	407	4	1	8.80636		16.35658		7.23666	
	408	4	2	8.80029		16.37181		8.35888	
	409	4	3	9.41158		16.90574		7.58370	
	410	4	1	10.52161		16.75216		7.52137	
	411	4	2	10.02387		15.90605		6.97730	
	412	4	3	10.65601		16.14699		6.08176	
	413	4	1	11.66890		16.08390		6.56104	
	414	4	2	12.01604		15.02445		6.43180	
	415	4	3	12.42695		16.03013		6.15000	
	416	4	1	13.02859		15.46213		5.39168	
	417	4	2	13.13386		16.27538		6.15796	
	418	4	3	12.53889		16.09304		7.09199	
	419	4	1	12.29565		17.16090		6.84671	
	420	4	2	13.39631		16.94991		6.78600	
	421	4	3	14.09707		17.15529		5.93370	
	422	4	1	14.58141		16.23811		5.50495	
	423	4	2	13.65727		15.75121		5.91549	
	424	4	3	12.67769		15.87665		5.38225	
	425	4	1	11.69793		16.15784		4.91252	
	426	4	2	10.66506		15.75286		4.74277	
	427	4	3	10.95591		16.23638		3.77258	
	428	4	1	10.08989		16.86376		4.11325	
	429	4	2	10.88585		16.90326		3.32298	
	430	4	3	10.59867		17.63749		4.12178	
	431	4	1	9.50522		17.86186		4.23872	
	432	4	2	9.75436		16.89123		4.74416	
	433	4	3	9.31413		17.00797		5.76994	
	434	4	1	9.00757		16.05955		6.28584	
	435	4	2	9.43313		15.38198		7.07289	
	436	4	3	9.74515		16.43452		6.83954	
	437	4	1	10.16072		17.47127		6.72958	
	438	4	2	11.17489		17.58930		6.26355	
	439	4	3	10.64972		18.54243		5.98900	
	440	4	1	9.55667		18.79047		6.04707	
	441	4	2	10.28804		19.25230		6.76224	
	442	4	3	9.16743		19.19480		6.73819	
	443	4	1	8.52701		18.28321		6.87428	
	444	4	2	7.94325		18.10517		5.93239	
	445	4	3	7.04823		18.52199		5.39867	
	446	4	1	7.80038		18.54996		6.23122	
	447	4	2	8.30136		17.70251		5.69224	
	448	4	3	7.19662		17.59898		5.86104	
	449	4	1	7.36904		16.49304		5.77844	
	450	4	2	7.89618		15.54634		5.48600	
	451	4	3	7.22479		16.04885		6.23190	
	452	4	1	7.68718		15.95330		7.25009	
	453	4	2	7.88079		16.59799		8.14816	
	454	4	3	7.73197		15.49942		7.97311	
	455	4	1	7.61304		14.41947		7.69168	
	456	4	2	7.17237		15.44295		7.82564	
	457	4	3	7.31671		16.53684		8.03109	
	458	4	1	7.20155		17.48392		8.62222	
	459	4	2	7.55381		17.73923		9.65681	
	460	4	3	8.08316		17.95916		8.69188	
	461	4	1	8.71242		18.77493		9.13709	
	462	4	2	7.94866		19.02573		8.35388	
	463	4	3	7.44255		19.21473		9.33764	
	464	4	1	6.70226		19.47582		10.13978	
	465	4	2	5.80075		0.13594		10.24550	
	466	4	3	6.39206		19.64147		9.42971	
	467	4	1	6.13247		18.58608		9.70972	
	468	4	2	5.09261		18.95733		9.91095	
	469	4	3	4.84830		18.31610		9.02282	
	470	4	1	5.35268		17.31971		8.91116	
	471	4	2	4.31094		17.19796		9.31068	
	472	4	3	4.42839		16.08220		9.28011	
	473	4	1	5.38136		15.92000		9.85037	
	474	4	2	5.47307		16.19209		8.76538	
	475	4	3	5.95102		17.17701		8.51808	
	476	4	1	4.97410		17.72262		8.43097	
	477	4	2	5.21156		17.31815		9.45061	
	478	4	3	5.10537		17.19183		8.34046	
	479	4	1	5.37614		18.24723		8.60965	
	480	4	2	6.45179		18.15514		8.30280	
	481	4	3	6.24386		18.06509		7.20357	
	482	4	1	5.35502		18.24265		7.86544	
	483	4	2	4.39259		17.81979		8.25859	
	484	4	3	3.43926		17.33468		7.91878	
	485	4	1	3.48296		16.30436		8.36170	
	486	4	2	3.61502		15.24343		8.02018	
	487	4	3	2.70625		15.81482		7.69259	
	488	4	1	3.01142		16.55289		8.48111	
	489	4	2	3.92733		16.88676		9.03725	
	490	4	3	4.51670		17.38266		9.85356	
	491	4	1	3.47356		16.98758		9.72940	
	492	4	2	2.81323		17.69722		10.29511	
	493	4	3	2.34874		18.48985		9.65041	
	494	4	1	3.03743		19.16474		9.07607	
	495	4	2	2.41145		19.40396		8.17576	
	496	4	3	3.19390		18.99560		7.48246	
	497	4	1	3.58954		18.47513		6.57019	
	498	4	2	3.06371		17.75597		7.25281	
	499	4	3	2.01465		18.14690		7.33210	
	500	4	1	0.99610		17.71296		7.14793	
	501	5	4	0.52317		2.87544		3.46358	
	502	5	4	1.91009		4.25800		3.34224	
	503	5	4	1.43283		5.48511		13.15099	
	504	5	4	0.41002		7.73804		2.24419	
	505	5	4	0.43420		7.85852		8.34541	
	506	5	4	0.31598		7.39519		16.47455	
	507	5	4	1.85978		8.20001		17.36143	
	508	5	4	0.77774		10.42507		1.64129	
	509	5	4	0.82558		11.95680		9.08060	
	510	5	4	0.71562		13.05204		0.81073	
	511	5	4	0.32154		12.88638		6.98631	
	512	5	4	1.29850		14.23140		8.18211	
	513	5	4	1.42903		15.94104		8.01165	
	514	5	4	0.87504		16.33232		3.25301	
	515	5	4	1.16302		18.05495		18.01132	
	516	5	4	3.13801		1.36267		11.34648	
	517	5	4	3.56074		5.56311		6.70349	
	518	5	4	3.57074		4.88288		17.82321	
	519	5	4	3.15864		7.77420		4.03811	
	520	5	4	3.42955		7.19005		16.01137	
	521	5	4	2.11327		7.53052		17.87346	
	522	5	4	2.35386		9.88345		11.95752	
	523	5	4	3.43155		11.75825		4.05043	
	524	5	4	3.85975		11.38184		9.35447	
	525	5	4	3.31909		11.36709		13.10478	
	526	5	4	2.49101		11.47631		17.07439	
	527	5	4	2.57497		12.10811		14.67277	
	528	5	4	2.71901		15.86518		1.77615	
	529	5	4	2.34658		18.77630		13.17420	
	530	5	4	4.83297		3.32125		0.02089	
	531	5	4	4.62532		4.07358		0.45471	
	532	5	4	5.85636		4.54281		11.56685	
	533	5	4	4.30707		7.19517		4.27751	
	534	5	4	5.34905		7.48876		18.98052	
	535	5	4	5.63032		13.98986		3.49845	
	536	5	4	4.44115		14.90037		1.93106	
	537	5	4	5.66195		17.30902		1.02703	
	538	5	4	5.01675		19.61626		4.06932	
	539	5	4	4.19438		18.01463		10.47254	
	540	5	4	6.55324		1.02858		12.90589	
	541	5	4	7.53394		3.61398		14.87851	
	542	5	4	6.71032		4.89063		15.57734	
	543	5	4	6.85129		4.52654		17.10399	
	544	5	4	6.62513		12.40640		0.87136	
	545	5	4	7.03664		13.37335		0.69479	
	546	5	4	7.06871		15.40103		7.05373	
	547	5	4	7.04382		16.09270		13.73769	
	548	5	4	6.18884		18.56164		0.41444	
	549	5	4	6.40094		19.04732		9.97994	
	550	5	4	9.72192		1.08030		18.65323	
	551	5	4	8.74309		4.96206		6.85817	
	552	5	4	8.97406		4.35933		10.57961	
	553	5	4	8.45611		7.18221		11.60540	
	554	5	4	9.57032		8.20392		3.77860	
	555	5	4	9.58970		11.64753		17.79190	
	556	5	4	9.77897		17.68093		1.17290	
	557	5	4	9.56114		16.41921		3.40388	
	558	5	4	8.78203		18.13110		0.05947	
	559	5	4	9.62928		18.32476		8.23856	
	560	5	4	9.30541		19.06301		15.97254	
	561	5	4	11.72220		2.00912		1.48067	
	562	5	4	10.82684		2.35932		19.95526	
	563	5	4	11.24468		7.65025		6.40406	
	564	5	4	11.00845		7.71827		18.93385	
	565	5	4	10.96822		12.66474		16.62640	
	566	5	4	11.38445		12.71111		17.24836	
	567	5	4	10.51245		14.61501		13.03244	
	568	5	4	11.29618		16.49872		8.38344	
	569	5	4	10.80216		18.14470		5.53238	
	570	5	4	11.50432		19.86557		12.04747	
	571	5	4	12.37119		7.09259		9.22313	
	572	5	4	13.34554		6.01313		9.48369	
	573	5	4	13.99543		7.51697		10.88143	
	574	5	4	12.64120		11.81803		13.49398	
	575	5	4	13.74879		12.48643		9.32890	
	576	5	4	13.44503		13.90163		8.76032	
	577	5	4	12.46670		17.23782		10.25087	
	578	5	4	13.47283		16.77203		16.18121	
	579	5	4	15.52670		0.78142		15.78072	
	580	5	4	15.13740		2.14085		0.50191	
	581	5	4	15.91749		3.82774		0.99777	
	582	5	4	15.82881		12.86997		14.07347	
	583	5	4	14.71414		16.84309		2.33457	
	584	5	4	15.04548		16.51698		16.91894	
	585	5	4	14.01369		18.90746		8.78329	
	586	5	4	15.51337		19.30385		16.81929	
	587	5	4	16.66992		2.89139		19.97893	
	588	5	4	17.21695		2.54660		18.79763	
	589	5	4	17.38186		8.28794		14.79458	
	590	5	4	16.74281		10.01063		6.40988	
	591	5	4	17.32664		10.04765		18.59798	
	592	5	4	16.81860		12.02817		5.61982	
	593	5	4	16.73339		13.17988		4.07517	
	594	5	4	16.65500		15.17411		2.46141	
	595	5	4	17.28046		19.25852		17.83184	
	596	5	4	18.11315		7.68750		15.26824	
	597	5	4	19.83722		8.44338		12.42161	
	598	5	4	19.07812		14.26721		11.57434	
	599	5	4	18.75781		19.36465		16.46190	
	600	5	4	19.51990		19.90882		18.46496	
Bonds                                                                               
                                                                                    
	1	1	1	2
	2	1	2	3
	3	1	3	4
	4	1	4	5
	5	1	5	6
	6	1	6	7
	7	1	7	8
	8	1	8	9
	9	1	9	10
	10	1	10	11
	11	1	11	12
	12	1	12	13
	13	1	13	14
	14	1	14	15
	15	1	15	16
	16	1	16	17
	17	1	17	18
	18	1	18	19
	19	1	19	20
	20	1	20	21
	21	1	21	22
	22	1	22	23
	23	1	23	24
	24	1	24	25
	25	1	25	26
	26	1	26	27
	27	1	27	28
	28	1	28	29
	29	1	29	30
	30	1	30	31
	31	1	31	32
	32	1	32	33
	33	1	33	34
	34	1	34	35
	35	1	35	36
	36	1	36	37
	37	1	37	38
	38	1	38	39
	39	1	39	40
	40	1	40	41
	41	1	41	42
	42	1	42	43
	43	1	43	44
	44	1	44	45
	45	1	45	46
	46	1	46	47
	47	1	47	48
	48	1	48	49
	49	1	49	50
	50	1	50	51
	51	1	51	52
	52	1	52	53
	53	1	53	54
	54	1	54	55
	55	1	55	56
	56	1	56	57
	57	1	57	58
	58	1	58	59
	59	1	59	60
	60	1	60	61
	61	1	61	62
	62	1	62	63
	63	1	63	64
	64	1	64	65
	65	1	65	66
	66	1	66	67
	67	1	67	68
	68	1	68	69
	69	1	69	70
	70	1	70	71
	71	1	71	72
	72	1	72	73
	73	1	73	74
	74	1	74	75
	75	1	75	76
	76	1	76	77
	77	1	77	78
	78	1	78	79
	79	1	79	80
	80	1	80	81
	81	1	81	82
	82	1	82	83
	83	1	83	84
	84	1	84	85
	85	1	85	86
	86	1	86	87
	87	1	87	88
	88	1	88	89
	89	1	89	90
	90	1	90	91
	91	1	91	92
	92	1	92	93
	93	1	93	94
	94	1	94	95
	95	1	95	96
	96	1	96	97
	97	1	97	98
	98	1	98	99
	99	1	99	100
	100	1	101	102
	101	1	102	103
	102	1	103	104
	103	1	104	105
	104	1	105	106
	105	1	106	107
	106	1	107	108
	107	1	108	109
	108	1	109	110
	109	1	110	111
	110	1	111	112
	111	1	112	113
	112	1	113	114
	113	1	114	115
	114	1	115	116
	115	1	116	117
	116	1	117	118
	117	1	118	119
	118	1	119	120
	119	1	120	121
	120	1	121	122
	121	1	122	123
	122	1	123	124
	123	1	124	125
	124	1	125	126
	125	1	126	127
	126	1	127	128
	127	1	128	129
	128	1	129	130
	129	1	130	131
	130	1	131	132
	131	1	132	133
	132	1	133	134
	133	1	134	135
	134	1	135	136
	135	1	136	137
	136	1	137	138
	137	1	138	139
	138	1	139	140
	139	1	140	141
	140	1	141	142
	141	1	142	143
	142	1	143	144
	143	1	144	145
	144	1	145	146
	145	1	146	147
	146	1	147	148
	147	1	148	149
	148	1	149	150
	149	1	150	151
	150	1	151	152
	151	1	152	153
	152	1	153	154
	153	1	154	155
	154	1	155	156
	155	1	156	157
	156	1	157	158
	157	1	158	159
	158	1	159	160
	159	1	160	161
	160	1	161	162
	161	1	162	163
	162	1	163	164
	163	1	164	165
	164	1	165	166
	165	1	166	167
	166	1	167	168
	167	1	168	169
	168	1	169	170
	169	1	170	171
	170	1	171	172
	171	1	172	173
	172	1	173	174
	173	1	174	175
	174	1	175	176
	175	1	176	177
	176	1	177	178
	177	1	178	179
	178	1	179	180
	179	1	180	181
	180	1	181	182
	181	1	182	183
	182	1	183	184
	183	1	184	185
	184	1	185	186
	185	1	186	187
	186	1	187	188
	187	1	188	189
	188	1	189	190
	189	1	190	191
	190	1	191	192
	191	1	192	193
	192	1	193	194
	193	1	194	195
	194	1	195	196
	195	1	196	197
	196	1	197	198
	197	1	198	199
	198	1	199	200
	199	1	201	202
	200	1	202	203
	201	1	203	204
	202	1	204	205
	203	1	205	206
	204	1	206	207
	205	1	207	208
	206	1	208	209
	207	1	209	210
	208	1	210	211
	209	1	211	212
	210	1	212	213
	211	1	213	214
	212	1	214	215
	213	1	215	216
	214	1	216	217
	215	1	217	218
	216	1	218	219
	217	1	219	220
	218	1	220	221
	219	1	221	222
	220	1	222	223
	221	1	223	224
	222	1	224	225
	223	1	225	226
	224	1	226	227
	225	1	227	228
	226	1	228	229
	227	1	229	230
	228	1	230	231
	229	1	231	232
	230	1	232	233
	231	1	233	234
	232	1	234	235
	233	1	235	236
	234	1	236	237
	235	1	237	238
	236	1	238	239
	237	1	239	240
	238	1	240	241
	239	1	241	242
	240	1	242	243
	241	1	243	244
	242	1	244	245
	243	1	245	246
	244	1	246	247
	245	1	247	248
	246	1	248	249
	247	1	249	250
	248	1	250	251
	249	1	251	252
	250	1	252	253
	251	1	253	254
	252	1	254	255
	253	1	255	256
	254	1	256	257
	255	1	257	258
	256	1	258	259
	257	1	259	260
	258	1	260	261
	259	1	261	262
	260	1	262	263
	261	1	263	264
	262	1	264	265
	263	1	265	266
	264	1	266	267
	265	1	267	268
	266	1	268	269
	267	1	269	270
	268	1	270	271
	269	1	271	272
	270	1	272	273
	271	1	273	274
	272	1	274	275
	273	1	275	276
	274	1	276	277
	275	1	277	278
	276	1	278	279
	277	1	279	280
	278	1	280	281
	279	1	281	282
	280	1	282	283
	281	1	283	284
	282	1	284	285
	283	1	285	286
	284	1	286	287
	285	1	287	288
	286	1	288	289
	287	1	289	290
	288	1	290	291
	289	1	291	292
	290	1	292	293
	291	1	293	294
	292	1	294	295
	293	1	295	296
	294	1	296	297
	295	1	297	298
	296	1	298	299
	297	1	299	300
	298	1	301	302
	299	1	302	303
	300	1	303	304
	301	1	304	305
	302	1	305	306
	303	1	306	307
	304	1	307	308
	305	1	308	309
	306	1	309	310
	307	1	310	311
	308	1	311	312
	309	1	312	313
	310	1	313	314
	311	1	314	315
	312	1	315	316
	313	1	316	317
	314	1	317	318
	315	1	318	319
	316	1	319	320
	317	1	320	321
	318	1	321	322
	319	1	322	323
	320	1	323	324
	321	1	324	325
	322	1	325	326
	323	1	326	327
	324	1	327	328
	325	1	328	329
	326	1	329	330
	327	1	330	331
	328	1	331	332
	329	1	332	333
	330	1	333	334
	331	1	334	335
	332	1	335	336
	333	1	336	337
	334	1	337	338
	335	1	338	339
	336	1	339	340
	337	1	340	341
	338	1	341	342
	339	1	342	343
	340	1	343	344
	341	1	344	345
	342	1	345	346
	343	1	346	347
	344	1	347	348
	345	1	348	349
	346	1	349	350
	347	1	350	351
	348	1	351	352
	349	1	352	353
	350	1	353	354
	351	1	354	355
	352	1	355	356
	353	1	356	357
	354	1	357	358
	355	1	358	359
	356	1	359	360
	357	1	360	361
	358	1	361	362
	359	1	362	363
	360	1	363	364
	361	1	364	365
	362	1	365	366
	363	1	366	367
	364	1	367	368
	365	1	368	369
	366	1	369	370
	367	1	370	371
	368	1	371	372
	369	1	372	373
	370	1	373	374
	371	1	374	375
	372	1	375	376
	373	1	376	377
	374	1	377	378
	375	1	378	379
	376	1	379	380
	377	1	380	381
	378	1	381	382
	379	1	382	383
	380	1	383	384
	381	1	384	385
	382	1	385	386
	383	1	386	387
	384	1	387	388
	385	1	388	389
	386	1	389	390
	387	1	390	391
	388	1	391	392
	389	1	392	393
	390	1	393	394
	391	1	394	395
	392	1	395	396
	393	1	396	397
	394	1	397	398
	395	1	398	399
	396	1	399	400
	397	1	401	402
	398	1	402	403
	399	1	403	404
	400	1	404	405
	401	1	405	406
	402	1	406	407
	403	1	407	408
	404	1	408	409
	405	1	409	410
	406	1	410	411
	407	1	411	412
	408	1	412	413
	409	1	413	414
	410	1	414	415
	411	1	415	416
	412	1	416	417
	413	1	417	418
	414	1	418	419
	415	1	419	420
	416	1	420	421
	417	1	421	422
	418	1	422	423