#-----------------------------------------------------------------------------------           
# NANOPOLY - POLYMER NANOCOMPOSITE STRUCTURAL DATA FILE                                        
#-----------------------------------------------------------------------------------           
# FILENAME:  test_structure.in                                                                  
# DATE: 2020-11-26                                                                                
#-----------------------------------------------------------------------------------           
                                                                                               
35 atoms                                                             
34 bonds                                                             
                                                                                               
3 atom types                                            
1 bond types                                            
                                                                                    
0.0000 1.2120 xlo xhi            
0.0000 1.2120 ylo yhi            
0.0000 1.2120 zlo zhi            
                                                                                    
Masses                                                                              
                                                                                    
1	1.0
2	1.0
3	1.0


Atoms                                                                               

	1	1	1	0.72618		0.70983		1.01159	
	2	1	2	0.97937		1.21033		0.99405	
	3	1	3	1.00643		0.65648		0.90785	
	4	1	1	0.25075		0.85329		1.16852	
	5	1	2	0.58856		0.03460		0.17125	
	6	1	3	0.36787		1.04841		0.90688	
	7	1	1	0.77775		0.73647		0.68417	
	8	1	2	0.35976		0.38037		0.56843	
	9	1	3	0.69002		1.18218		0.76229	
	10	1	1	1.17143		1.09409		0.48770	
	11	1	2	1.01311		0.32194		0.79814	
	12	1	3	1.03850		0.77423		0.46692	
	13	1	1	0.52896		0.87974		0.25681	
	14	1	2	0.27291		0.64272		0.69632	
	15	1	3	0.05930		1.15632		0.77047	
	16	1	1	0.35140		0.34801		1.02856	
	17	1	2	0.38545		0.57115		0.33033	
	18	1	3	1.15930		0.43894		0.00560	
	19	1	1	0.59890		0.41107		1.20835	
	20	1	2	1.04268		0.11558		0.17143	
	21	1	3	0.72018		1.02870		1.03476	
	22	1	1	0.67892		0.27298		0.71070	
	23	1	2	0.69961		0.60596		0.25946	
	24	1	3	1.16521		0.88780		0.12274	
	25	1	1	0.24527		0.14766		0.03932	
	26	1	2	0.53848		0.02871		0.50278	
	27	1	3	0.14673		0.84320		0.44424	
	28	1	1	0.81703		0.98899		0.42963	
	29	1	2	0.83813		0.33763		0.41707	
	30	1	3	0.14083		0.12961		0.33506	
	31	1	1	0.45436		0.97586		0.62288	
	32	1	2	0.18566		0.23495		0.76706	
	33	1	3	0.04054		0.52036		0.30620	
	34	1	1	1.19299		0.84229		0.76197	
	35	1	2	0.92996		0.69025		0.02178	
Bonds                                                                               
                                                                                    
	1	1	1	2
	2	1	2	3
	3	1	3	4
	4	1	4	5
	5	1	5	6
	6	1	6	7
	7	1	7	8
	8	1	8	9
	9	1	9	10
	10	1	10	11
	11	1	11	12
	12	1	12	13
	13	1	13	14
	14	1	14	15
	15	1	15	16
	16	1	16	17
	17	1	17	18
	18	1	18	19
	19	1	19	20
	20	1	20	21
	21	1	21	22
	22	1	22	23
	23	1	23	24
	24	1	24	25
	25	1	25	26
	26	1	26	27
	27	1	27	28
	28	1	28	29
	29	1	29	30
	30	1	30	31
	31	1	31	32
	32	1	32	33
	33	1	33	34
	34	1	34	35
