#-----------------------------------------------------------------------------------           
# NANOPOLY - POLYMER NANOCOMPOSITE STRUCTURAL DATA FILE                                        
#-----------------------------------------------------------------------------------           
# FILENAME:  test_structure.in                                                                  
# DATE: 2020-11-20                                                                                
#-----------------------------------------------------------------------------------           
                                                                                               
5000 atoms                                                             
4995 bonds                                                             
                                                                                               
3 atom types                                            
1 bond types                                            
                                                                                    
0.0000 10.3020 xlo xhi            
0.0000 10.3020 ylo yhi            
0.0000 10.3020 zlo zhi            
                                                                                    
Masses                                                                              
                                                                                    
1	1.0
2	1.0
3	1.0


Atoms                                                                               

	1	1	1	9.75780		6.33987		9.32864	
	2	1	2	10.01316		5.85549		9.20585	
	3	1	3	0.20325		5.66656		9.01334	
	4	1	1	0.40946		5.25981		8.68631	
	5	1	2	0.04305		5.00551		8.34575	
	6	1	3	10.17923		4.55030		8.62895	
	7	1	1	0.40720		4.39416		8.53067	
	8	1	2	0.29290		4.29383		9.07084	
	9	1	3	0.75456		4.42857		8.78166	
	10	1	1	0.22545		4.24634		8.73995	
	11	1	2	0.44027		3.72823		8.72191	
	12	1	3	0.59293		3.30824		8.38248	
	13	1	1	0.10756		3.04369		8.28581	
	14	1	2	10.12520		2.61627		8.05919	
	15	1	3	9.98805		2.07213		8.06368	
	16	1	1	10.14251		1.61687		7.77422	
	17	1	2	9.77402		1.43640		7.39139	
	18	1	3	9.26910		1.67802		7.43121	
	19	1	1	9.11591		1.19248		7.66720	
	20	1	2	9.56990		0.98457		7.92329	
	21	1	3	9.89079		0.80685		8.34797	
	22	1	1	9.81311		0.55027		8.84096	
	23	1	2	9.26693		0.55182		8.96982	
	24	1	3	8.76937		0.81045		8.94856	
	25	1	1	8.35723		0.80547		9.32939	
	26	1	2	7.88759		0.53176		9.18998	
	27	1	3	7.48620		0.42312		8.81315	
	28	1	1	7.15539		0.65328		8.42264	
	29	1	2	6.61020		0.75539		8.33748	
	30	1	3	6.73545		0.93934		7.82233	
	31	1	1	6.87271		0.41895		7.98130	
	32	1	2	7.11937		0.87771		8.19012	
	33	1	3	7.46787		0.44313		8.12226	
	34	1	1	7.92347		0.22631		7.87664	
	35	1	2	7.54177		0.54889		7.62136	
	36	1	3	7.19961		0.98269		7.71961	
	37	1	1	7.59796		1.29737		7.48045	
	38	1	2	7.90111		1.29941		7.00821	
	39	1	3	7.39620		1.40488		7.22924	
	40	1	1	7.85892		1.55886		7.50689	
	41	1	2	7.79543		1.84988		7.98249	
	42	1	3	7.52980		2.00705		8.45115	
	43	1	1	8.08264		2.08406		8.50900	
	44	1	2	8.24657		1.84640		8.99021	
	45	1	3	8.40975		1.73913		9.51630	
	46	1	1	8.55118		1.29266		9.20715	
	47	1	2	8.91438		0.92243		9.42146	
	48	1	3	8.84904		1.29713		9.83406	
	49	1	1	9.32555		1.08082		10.03670	
	50	1	2	9.46051		1.60148		9.87667	
	51	1	3	9.57901		2.14340		9.96147	
	52	1	1	9.30531		2.38386		0.08629	
	53	1	2	9.83142		2.20156		0.01640	
	54	1	3	0.01492		2.00791		0.22060	
	55	1	1	9.90982		1.71064		10.27602	
	56	1	2	10.07959		1.78544		9.74641	
	57	1	3	0.22328		2.12460		9.78157	
	58	1	1	0.60401		1.73823		9.92535	
	59	1	2	0.17671		1.88481		10.25827	
	60	1	3	0.71428		2.01836		0.04620	
	61	1	1	0.85580		2.55322		10.25434	
	62	1	2	1.03203		3.04821		0.14941	
	63	1	3	1.36908		2.98761		10.00685	
	64	1	1	1.58908		2.97920		0.22103	
	65	1	2	2.02445		2.67891		0.03341	
	66	1	3	2.52605		2.81814		10.12584	
	67	1	1	2.42815		2.35519		0.12550	
	68	1	2	2.40062		1.79497		0.14315	
	69	1	3	2.85906		1.47592		0.08879	
	70	1	1	3.02647		2.00861		0.03287	
	71	1	2	3.49734		1.74130		0.18031	
	72	1	3	3.50199		1.96432		9.96738	
	73	1	1	3.39125		2.51261		10.01243	
	74	1	2	3.08006		2.16897		9.69622	
	75	1	3	2.91897		2.66245		9.48303	
	76	1	1	2.73981		2.29677		9.86916	
	77	1	2	2.40965		2.66975		9.61073	
	78	1	3	2.92658		2.78737		9.79474	
	79	1	1	3.41584		2.63507		9.56597	
	80	1	2	3.67692		3.02521		9.25850	
	81	1	3	3.45792		3.46146		8.98167	
	82	1	1	3.17000		3.92053		8.83581	
	83	1	2	3.59060		4.06144		8.49208	
	84	1	3	3.58060		4.46798		8.10539	
	85	1	1	3.88193		4.19740		7.71692	
	86	1	2	3.52124		4.61710		7.81006	
	87	1	3	3.58334		4.13883		8.09696	
	88	1	1	4.02132		4.20573		8.44135	
	89	1	2	4.39232		4.44333		8.78895	
	90	1	3	4.38528		4.91711		8.48829	
	91	1	1	4.45942		4.45708		8.17558	
	92	1	2	4.92841		4.72561		8.02443	
	93	1	3	5.33916		4.71232		7.64231	
	94	1	1	5.78104		4.81038		7.97404	
	95	1	2	5.46427		4.36659		8.10676	
	96	1	3	5.46824		4.22073		7.56489	
	97	1	1	5.37015		3.67308		7.63817	
	98	1	2	5.18696		3.41192		8.09985	
	99	1	3	4.96729		3.41422		7.58346	
	100	1	1	4.92941		2.99087		7.94987	
	101	1	2	4.77600		3.08150		7.41774	
	102	1	3	4.29758		3.20348		7.68446	
	103	1	1	4.72251		3.23956		8.04921	
	104	1	2	4.80872		3.01644		8.55684	
	105	1	3	4.66596		2.61782		8.92514	
	106	1	1	4.56140		3.15784		9.03632	
	107	1	2	4.32706		2.66305		9.15953	
	108	1	3	3.92913		2.95912		9.42202	
	109	1	1	3.98650		2.72087		8.91719	
	110	1	2	3.84144		2.17922		8.93920	
	111	1	3	3.58685		1.78016		9.24061	
	112	1	1	3.37042		2.20127		9.54183	
	113	1	2	2.86809		1.98838		9.41047	
	114	1	3	3.21535		2.37702		9.20242	
	115	1	1	3.27367		1.81933		9.18024	
	116	1	2	3.44436		1.43836		9.55527	
	117	1	3	2.99419		1.70458		9.75871	
	118	1	1	3.00135		1.15965		9.62486	
	119	1	2	3.17053		0.65871		9.81289	
	120	1	3	3.50432		0.89986		9.43166	
	121	1	1	3.96693		0.92427		9.11494	
	122	1	2	4.50614		0.93166		9.27023	
	123	1	3	4.08218		1.07850		9.60730	
	124	1	1	3.77208		1.54113		9.53858	
	125	1	2	3.40656		1.20343		9.27922	
	126	1	3	3.56148		0.92630		9.74194	
	127	1	1	3.99289		0.57867		9.83111	
	128	1	2	3.93997		0.11391		9.52110	
	129	1	3	3.60966		0.23318		9.95880	
	130	1	1	3.63884		0.58552		9.52300	
	131	1	2	3.29128		0.16430		9.39382	
	132	1	3	3.32078		0.18897		8.83397	
	133	1	1	3.73591		0.40643		8.52529	
	134	1	2	3.70665		0.80254		8.92172	
	135	1	3	4.03555		0.36463		9.04410	
	136	1	1	3.72886		10.19921		8.99540	
	137	1	2	3.19502		10.02632		9.00144	
	138	1	3	3.53221		9.99991		8.55365	
	139	1	1	3.81139		9.98854		8.06699	
	140	1	2	3.92074		10.10517		7.52907	
	141	1	3	4.19187		0.29446		7.53534	
	142	1	1	4.14951		0.82737		7.36470	
	143	1	2	4.64145		0.55789		7.34786	
	144	1	3	4.67467		0.17351		6.94036	
	145	1	1	4.89476		9.97020		7.04590	
	146	1	2	4.63142		9.48513		7.14721	
	147	1	3	4.45105		9.18856		7.58815	
	148	1	1	4.06042		9.30666		7.97334	
	149	1	2	3.90997		8.81077		7.75800	
	150	1	3	3.80081		9.15811		7.33098	
	151	1	1	4.02207		9.04057		6.82885	
	152	1	2	3.65934		8.69911		7.08719	
	153	1	3	4.05485		8.78254		7.47645	
	154	1	1	3.57441		9.03942		7.61099	
	155	1	2	3.30510		8.58621		7.41868	
	156	1	3	3.48801		8.21250		7.04212	
	157	1	1	3.53104		8.25352		7.60013	
	158	1	2	3.61262		8.41173		8.13232	
	159	1	3	3.79852		8.39377		7.60314	
	160	1	1	4.10523		8.48507		7.14216	
	161	1	2	4.31057		7.99330		6.96637	
	162	1	3	4.53126		7.85112		7.46235	
	163	1	1	4.04968		7.56333		7.47534	
	164	1	2	3.75705		7.78013		7.90228	
	165	1	3	4.12051		7.91658		8.30750	
	166	1	1	3.79885		7.55575		8.59255	
	167	1	2	3.87687		7.47026		9.14165	
	168	1	3	4.40589		7.42704		8.95949	
	169	1	1	4.82298		7.31307		8.60177	
	170	1	2	4.32641		7.05484		8.64238	
	171	1	3	4.09160		6.58827		8.84756	
	172	1	1	4.44906		6.53158		8.41869	
	173	1	2	4.72539		6.53904		8.90705	
	174	1	3	5.05897		6.50574		8.45702	
	175	1	1	5.20717		6.99901		8.23424	
	176	1	2	5.41529		6.82734		7.74218	
	177	1	3	5.03510		6.52377		8.02184	
	178	1	1	5.45526		6.58096		8.38941	
	179	1	2	5.88842		6.93741		8.37457	
	180	1	3	5.81290		6.54573		8.76927	
	181	1	1	6.01181		6.12524		8.45536	
	182	1	2	6.43647		6.48702		8.51616	
	183	1	3	6.87584		6.78221		8.70252	
	184	1	1	7.14130		7.27458		8.65768	
	185	1	2	7.67261		7.36494		8.81408	
	186	1	3	7.76473		6.84055		8.63674	
	187	1	1	8.00568		7.34728		8.62766	
	188	1	2	8.12562		7.27678		9.17131	
	189	1	3	7.99702		6.82997		8.85709	
	190	1	1	8.21581		6.76876		9.37022	
	191	1	2	8.69361		6.49933		9.48863	
	192	1	3	9.15842		6.19249		9.55726	
	193	1	1	9.18821		5.66664		9.75094	
	194	1	2	8.90334		5.81486		9.29073	
	195	1	3	8.39021		5.81593		9.06355	
	196	1	1	8.28912		5.27542		9.17554	
	197	1	2	8.31647		5.71486		9.52346	
	198	1	3	8.24998		6.01331		9.99401	
	199	1	1	8.64879		5.63882		9.86904	
	200	1	2	8.29782		5.36628		9.52633	
	201	1	3	8.73168		5.30681		9.87724	
	202	1	1	8.94961		5.00714		9.45580	
	203	1	2	8.70489		4.97556		8.95179	
	204	1	3	8.78664		5.42654		8.62800	
	205	1	1	9.11029		5.79574		8.89975	
	206	1	2	9.28782		6.24042		8.60709	
	207	1	3	9.29378		6.38489		8.06486	
	208	1	1	9.34163		5.84689		7.91261	
	209	1	2	8.89134		5.74721		7.59289	
	210	1	3	9.38997		5.55161		7.42547	
	211	1	1	8.84060		5.56716		7.31202	
	212	1	2	8.78426		5.01698		7.40710	
	213	1	3	9.28312		4.81637		7.56774	
	214	1	1	9.70101		5.15721		7.72303	
	215	1	2	9.39554		5.11304		8.19170	
	216	1	3	9.24663		5.53865		8.52577	
	217	1	1	9.19128		5.00908		8.70299	
	218	1	2	9.21578		4.52584		8.98723	
	219	1	3	9.35920		4.01442		8.80615	
	220	1	1	9.39198		3.72373		8.32726	
	221	1	2	9.93877		3.76219		8.20705	
	222	1	3	0.10157		4.07650		8.21642	
	223	1	1	0.58311		4.13718		7.93473	
	224	1	2	0.58460		4.61392		7.63871	
	225	1	3	0.11963		4.91237		7.54051	
	226	1	1	10.22503		4.87587		7.01618	
	227	1	2	0.11134		5.24414		7.39542	
	228	1	3	10.22463		5.69495		7.67124	
	229	1	1	0.34052		6.01877		7.48301	
	230	1	2	10.08991		5.99930		7.38730	
	231	1	3	10.05539		6.51816		7.59827	
	232	1	1	9.51545		6.51978		7.75114	
	233	1	2	9.82609		6.59934		7.29061	
	234	1	3	0.01565		6.86510		7.23904	
	235	1	1	0.25178		7.36671		7.15222	
	236	1	2	0.44616		7.24128		7.66349	
	237	1	3	0.44358		7.75381		7.43497	
	238	1	1	0.86729		8.02143		7.68746	
	239	1	2	0.39902		7.89853		7.97123	
	240	1	3	0.22639		8.42048		8.08381	
	241	1	1	10.22563		8.70610		7.70742	
	242	1	2	0.32194		8.78525		7.32013	
	243	1	3	0.55779		8.54371		6.87186	
	244	1	1	0.17025		8.19618		6.66223	
	245	1	2	0.49509		7.75387		6.77949	
	246	1	3	0.18390		8.05624		7.13536	
	247	1	1	0.43484		8.03831		6.63375	
	248	1	2	0.64093		8.39308		6.25089	
	249	1	3	0.72156		8.89450		6.48961	
	250	1	1	0.18188		8.84641		6.34351	
	251	1	2	10.18290		8.37326		6.32235	
	252	1	3	0.14041		8.04906		5.94491	
	253	1	1	0.60176		7.79333		6.13639	
	254	1	2	0.74331		8.11759		5.70081	
	255	1	3	0.23414		7.99899		5.49686	
	256	1	1	10.05893		8.28578		5.56710	
	257	1	2	0.22835		8.42610		5.83725	
	258	1	3	0.78021		8.41270		5.93815	
	259	1	1	0.41142		8.43901		5.51600	
	260	1	2	0.92196		8.43195		5.28316	
	261	1	3	1.04153		8.93118		5.05648	
	262	1	1	1.00203		8.49632		4.70399	
	263	1	2	1.36445		8.08504		4.82404	
	264	1	3	1.24302		8.17415		4.28346	
	265	1	1	1.62935		7.97061		4.63592	
	266	1	2	1.54138		7.77352		5.15393	
	267	1	3	1.29328		7.45454		5.54330	
	268	1	1	1.02990		7.02523		5.29586	
	269	1	2	1.03656		7.37822		5.73205	
	270	1	3	1.34962		7.08224		6.09164	
	271	1	1	1.56945		6.57388		6.00133	
	272	1	2	1.20434		6.15396		6.07393	
	273	1	3	1.28962		5.64288		6.28943	
	274	1	1	1.14748		5.16655		6.02903	
	275	1	2	0.58814		5.12590		6.04912	
	276	1	3	0.60142		4.80735		5.58731	
	277	1	1	0.32715		4.61045		6.03554	
	278	1	2	0.23203		4.57687		5.48351	
	279	1	3	10.04524		4.62357		5.21183	
	280	1	1	9.68146		4.64739		4.78520	
	281	1	2	9.14556		4.72841		4.93066	
	282	1	3	9.32976		4.64624		5.45433	
	283	1	1	9.11562		5.11608		5.67411	
	284	1	2	9.06473		5.16954		6.23040	
	285	1	3	8.76831		4.70521		6.33736	
	286	1	1	8.20746		4.71976		6.34970	
	287	1	2	7.94607		4.70472		5.85335	
	288	1	3	8.36077		4.41180		5.61434	
	289	1	1	8.44590		3.86139		5.54568	
	290	1	2	8.94152		3.63776		5.68444	
	291	1	3	8.83470		4.03211		5.29976	
	292	1	1	9.12854		3.90720		4.83828	
	293	1	2	8.58531		4.01441		4.74706	
	294	1	3	8.37793		4.26456		5.20459	
	295	1	1	7.87133		4.07562		5.35481	
	296	1	2	7.64286		3.93181		5.84677	
	297	1	3	7.71366		3.62154		5.38458	
	298	1	1	8.08410		3.66592		5.80375	
	299	1	2	7.93575		3.12501		5.82178	
	300	1	3	7.79765		3.11332		6.36556	
	301	1	1	7.35688		3.38930		6.57646	
	302	1	2	7.76238		3.58905		6.24391	
	303	1	3	7.40199		3.26834		5.95725	
	304	1	1	6.91785		3.04252		6.12910	
	305	1	2	6.56620		3.46189		6.25312	
	306	1	3	7.02317		3.21778		6.46877	
	307	1	1	6.73208		3.01790		6.90492	
	308	1	2	6.51385		3.08874		7.41704	
	309	1	3	5.95347		3.07594		7.44382	
	310	1	1	6.24593		2.80735		7.04729	
	311	1	2	6.05927		2.27818		7.03957	
	312	1	3	6.43310		2.03864		6.69637	
	313	1	1	5.88989		2.06597		6.83453	
	314	1	2	5.43245		2.19327		7.13362	
	315	1	3	5.55943		2.41190		7.63461	
	316	1	1	6.11543		2.48698		7.64649	
	317	1	2	6.08470		2.24592		8.15231	
	318	1	3	6.18238		1.76046		8.41633	
	319	1	1	6.51705		2.10917		8.13117	
	320	1	2	6.28839		1.97268		7.63721	
	321	1	3	5.83294		1.65386		7.71357	
	322	1	1	5.74333		1.10428		7.64403	
	323	1	2	5.79117		0.82952		7.15707	
	324	1	3	6.18869		1.17544		7.35003	
	325	1	1	6.45213		1.63291		7.54037	
	326	1	2	6.07968		1.44965		7.91800	
	327	1	3	6.27575		0.92405		7.93242	
	328	1	1	6.17230		0.41674		7.71598	
	329	1	2	6.48050		0.08590		8.04834	
	330	1	3	6.29284		10.04014		8.44679	
	331	1	1	6.80835		10.24015		8.35111	
	332	1	2	6.64166		10.23975		7.81527	
	333	1	3	6.64514		9.69805		7.66879	
	334	1	1	6.58198		9.38814		7.20524	
	335	1	2	7.09772		9.60723		7.17481	
	336	1	3	6.94848		9.09355		7.34445	
	337	1	1	6.69686		9.13790		7.84409	
	338	1	2	6.65041		9.02454		7.29645	
	339	1	3	6.46517		8.67992		7.69874	
	340	1	1	6.31914		8.55736		7.17095	
	341	1	2	6.78776		8.73835		6.92087	
	342	1	3	6.58649		9.12004		6.56210	
	343	1	1	6.33141		8.66750		6.34982	
	344	1	2	6.40942		8.99306		5.89945	
	345	1	3	6.01562		9.29520		6.16127	
	346	1	1	6.27647		9.78136		6.05870	
	347	1	2	6.12945		9.52056		5.58406	
	348	1	3	6.28856		9.77410		5.10940	
	349	1	1	5.76701		9.60401		5.22755	
	350	1	2	5.98273		9.67344		4.71417	
	351	1	3	6.50216		9.82448		4.86345	
	352	1	1	6.24412		10.08871		4.44095	
	353	1	2	6.69860		0.11502		4.41705	
	354	1	3	6.25842		0.44399		4.53082	
	355	1	1	6.05006		0.94590		4.39087	
	356	1	2	5.76827		1.35471		4.12938	
	357	1	3	5.75699		0.97977		4.54676	
	358	1	1	6.28500		1.11765		4.67755	
	359	1	2	6.21060		1.64306		4.49501	
	360	1	3	5.67398		1.62768		4.33158	
	361	1	1	5.13940		1.79814		4.34072	
	362	1	2	4.74128		1.62441		3.98543	
	363	1	3	5.04920		2.08218		3.88277	
	364	1	1	4.82471		2.52059		3.61384	
	365	1	2	5.15871		2.85396		3.91752	
	366	1	3	5.20673		3.18810		3.46923	
	367	1	1	5.40816		3.30298		3.98025	
	368	1	2	5.82351		3.66094		4.09965	
	369	1	3	6.27780		3.66553		4.42907	
	370	1	1	6.73127		3.90695		4.20324	
	371	1	2	6.72606		3.46025		3.86362	
	372	1	3	6.69206		3.01274		3.52673	
	373	1	1	6.53091		3.54533		3.45403	
	374	1	2	6.31633		3.50279		3.97081	
	375	1	3	5.79902		3.42116		3.76922	
	376	1	1	6.21090		3.80229		3.77075	
	377	1	2	6.23973		3.33454		3.46206	
	378	1	3	5.99602		3.76088		3.19050	
	379	1	1	6.44129		3.43030		3.10471	
	380	1	2	6.88229		3.74942		2.96833	
	381	1	3	7.14684		4.24021		2.90470	
	382	1	1	7.60799		4.46982		3.12725	
	383	1	2	8.09376		4.48466		3.40782	
	384	1	3	8.09491		4.45319		2.84753	
	385	1	1	8.27106		4.08131		3.22910	
	386	1	2	7.88253		3.73204		3.02423	
	387	1	3	7.40048		3.63020		3.29286	
	388	1	1	7.38098		3.40190		2.78060	
	389	1	2	7.10924		2.93456		2.63005	
	390	1	3	6.73960		3.05174		2.22442	
	391	1	1	6.83692		2.74008		2.68083	
	392	1	2	6.51757		2.48642		2.29536	
	393	1	3	5.96557		2.45086		2.38990	
	394	1	1	5.42669		2.58338		2.30648	
	395	1	2	5.73052		2.94126		2.61391	
	396	1	3	6.26399		3.08436		2.51469	
	397	1	1	6.49784		2.96985		2.01758	
	398	1	2	6.60154		3.38255		2.38342	
	399	1	3	6.04701		3.37458		2.46911	
	400	1	1	6.04562		3.79418		2.09649	
	401	1	2	6.35233		4.13066		2.42456	
	402	1	3	6.64658		4.11768		2.90222	
	403	1	1	6.93862		4.22655		3.36888	
	404	1	2	7.14517		3.87315		3.75275	
	405	1	3	7.32636		4.38859		3.62470	
	406	1	1	7.30367		3.96449		3.25791	
	407	1	2	7.84489		4.07874		3.16334	
	408	1	3	7.88414		3.56811		3.39275	
	409	1	1	8.17878		3.90633		3.72996	
	410	1	2	8.64993		4.08298		3.97840	
	411	1	3	9.14416		3.94384		3.75191	
	412	1	1	9.02186		3.45466		3.50561	
	413	1	2	8.48836		3.55664		3.64666	
	414	1	3	7.97755		3.36245		3.77422	
	415	1	1	7.74857		3.58453		4.23591	
	416	1	2	7.66227		3.97867		4.62593	
	417	1	3	7.13951		3.88759		4.44335	
	418	1	1	6.96404		3.37761		4.28830	
	419	1	2	6.46724		3.12314		4.34610	
	420	1	3	6.48839		3.65667		4.17344	
	421	1	1	6.56858		3.81903		3.64229	
	422	1	2	6.47992		4.28085		3.33607	
	423	1	3	5.95406		4.36338		3.51374	
	424	1	1	5.53935		4.07402		3.27042	
	425	1	2	5.25416		4.51516		3.46784	
	426	1	3	5.22077		4.12479		3.86960	
	427	1	1	5.67206		4.41698		4.03047	
	428	1	2	6.07231		4.15156		4.32074	
	429	1	3	5.60188		4.01776		4.59588	
	430	1	1	5.45918		4.32023		5.04650	
	431	1	2	5.65326		4.45934		4.53867	
	432	1	3	5.36582		4.28084		4.09097	
	433	1	1	5.67528		4.69033		3.86410	
	434	1	2	5.69395		4.21266		3.57017	
	435	1	3	5.22159		3.98831		3.36656	
	436	1	1	4.88858		3.56334		3.51957	
	437	1	2	4.91949		4.02726		3.83379	
	438	1	3	4.40868		3.84798		3.68601	
	439	1	1	4.46583		3.33975		3.45502	
	440	1	2	4.41142		2.87928		3.77112	
	441	1	3	4.75171		2.96990		4.20804	
	442	1	1	4.64706		3.30137		3.76749	
	443	1	2	4.64533		3.33103		3.20711	
	444	1	3	4.96340		3.01745		3.54683	
	445	1	1	5.41993		3.16192		3.25422	
	446	1	2	5.45688		3.58598		2.88855	
	447	1	3	5.39040		3.45068		2.34801	
	448	1	1	5.26271		3.63486		1.83353	
	449	1	2	5.15206		3.27473		1.41763	
	450	1	3	5.66126		3.09479		1.57011	
	451	1	1	5.74308		3.24411		2.10482	
	452	1	2	5.79614		2.71655		1.92103	
	453	1	3	6.11892		3.11501		2.14897	
	454	1	1	5.97437		2.73210		2.53289	
	455	1	2	6.26180		2.72108		2.05104	
	456	1	3	6.77552		2.73391		1.82557	
	457	1	1	6.96532		3.26191		1.81538	
	458	1	2	6.58196		3.67095		1.78999	
	459	1	3	6.49109		4.08041		2.16281	
	460	1	1	6.30857		4.32885		1.69390	
	461	1	2	6.07861		4.40599		1.18786	
	462	1	3	5.58107		4.63903		1.07360	
	463	1	1	5.09760		4.58478		1.35329	
	464	1	2	5.01451		4.89777		0.89498	
	465	1	3	5.31460		5.29716		1.15060	
	466	1	1	4.82693		5.02055		1.17463	
	467	1	2	4.33608		4.96759		0.90785	
	468	1	3	4.35457		5.46851		1.16014	
	469	1	1	4.83760		5.27932		0.94612	
	470	1	2	5.05074		5.76976		1.11627	
	471	1	3	5.43977		5.49919		1.41686	
	472	1	1	5.41144		5.00590		1.68290	
	473	1	2	5.76066		5.37082		1.43838	
	474	1	3	5.78069		4.89435		1.14260	
	475	1	1	5.99536		5.35098		0.89700	
	476	1	2	6.09971		4.83998		0.68988	
	477	1	3	5.78218		4.98692		0.25114	
	478	1	1	6.13146		5.30495		0.55409	
	479	1	2	6.51280		5.62717		0.81033	
	480	1	3	6.97082		5.33661		0.66643	
	481	1	1	7.29940		5.70148		0.39475	
	482	1	2	7.22288		5.82164		0.93754	
	483	1	3	7.38962		5.30320		0.80217	
	484	1	1	7.78668		5.53051		1.12710	
	485	1	2	7.63204		5.12394		1.48164	
	486	1	3	7.07721		5.08518		1.40700	
	487	1	1	6.96813		4.67272		1.77155	
	488	1	2	7.37401		4.93406		1.48541	
	489	1	3	7.19737		5.45580		1.37819	
	490	1	1	6.87866		5.91665		1.34733	
	491	1	2	6.45782		5.90789		0.97620	
	492	1	3	6.46137		5.87133		0.41624	
	493	1	1	6.08073		6.28228		0.45010	
	494	1	2	5.86287		6.58256		0.87115	
	495	1	3	6.39068		6.59984		0.68134	
	496	1	1	5.97372		6.66396		0.31129	
	497	1	2	5.91336		6.98434		10.15653	
	498	1	3	6.22098		7.16340		9.72269	
	499	1	1	6.26214		7.30983		10.26286	
	500	1	2	6.24632		7.08765		0.47592	
	501	1	3	6.03183		7.46204		0.83472	
	502	1	1	5.85665		6.92942		0.85806	
	503	1	2	6.02196		7.39081		1.13138	
	504	1	3	6.38022		7.23544		0.72836	
	505	1	1	6.93841		7.27035		0.68236	
	506	1	2	6.82452		7.39869		1.21665	
	507	1	3	6.77708		7.79062		1.61546	
	508	1	1	6.99922		7.80690		2.13053	
	509	1	2	6.90769		7.95609		2.66371	
	510	1	3	7.37836		7.78499		2.91690	
	511	1	1	7.51226		7.25156		2.80537	
	512	1	2	7.75526		7.55965		3.20654	
	513	1	3	8.15269		7.80900		2.89868	
	514	1	1	7.78782		8.07289		3.23355	
	515	1	2	8.04474		8.54427		3.39696	
	516	1	3	7.99915		8.91330		2.97667	
	517	1	1	8.12953		8.83265		3.51649	
	518	1	2	7.56933		8.80071		3.50845	
	519	1	3	7.12223		8.47212		3.59235	
	520	1	1	6.58205		8.38384		3.46858	
	521	1	2	6.81947		7.91935		3.67544	
	522	1	3	6.91426		8.06129		3.14085	
	523	1	1	7.16231		7.58311		3.29811	
	524	1	2	7.21953		7.11769		3.60637	
	525	1	3	6.72176		7.31954		3.76884	
	526	1	1	6.33348		7.57243		3.45231	
	527	1	2	6.53192		7.88656		3.87285	
	528	1	3	6.07026		8.16095		3.71010	
	529	1	1	5.98844		7.82811		4.15444	
	530	1	2	6.12670		8.25262		4.49441	
	531	1	3	5.66438		8.45920		4.25254	
	532	1	1	5.54263		8.82367		4.66151	
	533	1	2	5.67159		9.14276		5.10475	
	534	1	3	6.14598		9.43163		5.18487	
	535	1	1	5.68298		9.54782		4.88985	
	536	1	2	5.54508		9.35512		4.38116	
	537	1	3	5.79898		8.88960		4.19750	
	538	1	1	5.51581		9.32974		3.99503	
	539	1	2	5.98608		9.14719		4.24086	
	540	1	3	6.36531		9.55979		4.27016	
	541	1	1	6.64534		9.72733		3.81362	
	542	1	2	6.36783		9.46542		3.40216	
	543	1	3	6.74420		9.35762		3.80421	
	544	1	1	7.26195		9.15482		3.72862	
	545	1	2	7.31393		9.34459		4.25416	
	546	1	3	7.37023		8.81631		4.07344	
	547	1	1	6.91336		8.74919		3.75457	
	548	1	2	6.91331		9.27404		3.55597	
	549	1	3	7.41625		9.49826		3.66409	
	550	1	1	7.04577		9.22888		3.98826	
	551	1	2	7.45760		9.08154		4.33982	
	552	1	3	7.37747		9.09110		4.89516	
	553	1	1	7.74815		9.41475		4.62541	
	554	1	2	8.22703		9.61140		4.84201	
	555	1	3	8.01870		10.10646		5.00458	
	556	1	1	8.33823		9.88453		4.60015	
	557	1	2	8.45196		10.07838		4.08596	
	558	1	3	8.43038		0.06268		4.56812	
	559	1	1	8.83684		0.15858		4.94296	
	560	1	2	8.44861		10.05781		4.89867	
	561	1	3	8.27072		0.27793		5.00194	
	562	1	1	8.24149		10.07353		5.24199	
	563	1	2	7.79455		9.74343		5.32069	
	564	1	3	7.39220		10.06596		5.54205	
	565	1	1	7.89155		10.05862		5.28610	
	566	1	2	8.13344		9.55605		5.34787	
	567	1	3	8.62775		9.42172		5.57705	
	568	1	1	8.49565		9.79813		5.18237	
	569	1	2	8.52357		0.03831		5.32441	
	570	1	3	8.92675		0.38479		5.14467	
	571	1	1	8.55931		0.72719		5.39498	
	572	1	2	8.55758		0.94657		5.91149	
	573	1	3	8.64679		1.50058		5.90632	
	574	1	1	8.44510		1.09757		5.57193	
	575	1	2	8.69228		1.59258		5.47824	
	576	1	3	8.94086		2.09288		5.53134	
	577	1	1	9.14994		1.71966		5.89452	
	578	1	2	9.46155		1.26904		5.77305	
	579	1	3	9.47212		1.45974		5.24538	
	580	1	1	9.45917		2.01532		5.16737	
	581	1	2	9.48186		2.08296		4.61076	
	582	1	3	9.47078		2.63683		4.52124	
	583	1	1	8.92411		2.57241		4.41209	
	584	1	2	8.79746		2.06623		4.61863	
	585	1	3	8.40659		1.95568		5.00582	
	586	1	1	8.69217		1.64276		4.63781	
	587	1	2	8.90388		1.22103		4.33410	
	588	1	3	9.23459		1.49424		3.97230	
	589	1	1	9.13658		1.75241		3.48378	
	590	1	2	8.94925		1.71683		2.95599	
	591	1	3	8.39979		1.83075		2.95148	
	592	1	1	8.47785		2.25938		2.59779	
	593	1	2	8.02209		2.22212		2.92308	
	594	1	3	8.49955		2.15571		3.21037	
	595	1	1	8.95592		2.34344		2.94318	
	596	1	2	9.34714		2.06834		2.64960	
	597	1	3	9.33090		2.40714		3.09666	
	598	1	1	9.84753		2.32817		3.30105	
	599	1	2	10.18782		2.63162		3.62821	
	600	1	3	9.78428		2.97998		3.80346	
	601	1	1	10.16630		3.39093		3.81312	
	602	1	2	9.67871		3.43616		3.53902	
	603	1	3	9.47068		3.63845		3.05869	
	604	1	1	9.22423		3.13657		3.10649	
	605	1	2	9.68552		3.42346		2.96572	
	606	1	3	10.17004		3.61069		2.75337	
	607	1	1	10.04851		3.84241		2.25694	
	608	1	2	10.18716		4.31684		1.99121	
	609	1	3	10.09535		4.86692		1.92885	
	610	1	1	9.83582		5.13078		1.50702	
	611	1	2	9.61237		4.63727		1.36064	
	612	1	3	9.20111		4.42856		1.68035	
	613	1	1	8.83356		4.00503		1.70138	
	614	1	2	8.71315		4.06641		2.24603	
	615	1	3	8.72215		4.35296		1.76362	
	616	1	1	8.56740		4.87229		1.90944	
	617	1	2	8.10075		5.01871		1.63428	
	618	1	3	8.46818		4.60806		1.52809	
	619	1	1	8.47139		5.12232		1.75267	
	620	1	2	8.70600		5.57348		1.99000	
	621	1	3	8.24498		5.79990		2.21606	
	622	1	1	8.41357		6.15969		1.81979	
	623	1	2	7.99060		6.47371		1.62639	
	624	1	3	7.93211		6.59618		1.08188	
	625	1	1	7.72422		6.29207		0.65855	
	626	1	2	7.44517		6.64277		0.32083	
	627	1	3	6.90777		6.50228		0.40064	
	628	1	1	7.30105		6.17974		0.16356	
	629	1	2	7.66587		5.93277		10.11796	
	630	1	3	7.81060		6.41214		9.86465	
	631	1	1	7.47965		5.99593		9.68532	
	632	1	2	7.66492		6.38565		9.32657	
	633	1	3	7.11392		6.44885		9.41208	
	634	1	1	7.36960		6.88332		9.16556	
	635	1	2	7.64768		7.31012		9.40098	
	636	1	3	7.96379		7.74622		9.24349	
	637	1	1	8.10852		7.86148		9.77329	
	638	1	2	7.82611		7.63928		10.20431	
	639	1	3	8.13546		7.29870		9.88304	
	640	1	1	7.57909		7.23282		9.85104	
	641	1	2	7.33579		7.60272		9.50622	
	642	1	3	6.99499		7.75466		9.92536	
	643	1	1	6.92338		7.40849		0.05920	
	644	1	2	6.54925		7.68504		0.37299	
	645	1	3	6.03002		7.88208		0.29246	
	646	1	1	5.71730		7.44508		0.45417	
	647	1	2	5.38009		7.88936		0.51595	
	648	1	3	5.25568		7.57520		0.96399	
	649	1	1	5.23479		7.12687		1.30085	
	650	1	2	4.83618		7.06080		0.91142	
	651	1	3	4.50723		7.33416		0.54814	
	652	1	1	4.13140		7.69479		0.33930	
	653	1	2	3.98858		7.49132		0.84240	
	654	1	3	3.67198		7.94366		0.74213	
	655	1	1	3.29417		8.27865		0.49726	
	656	1	2	3.00918		8.52644		0.08219	
	657	1	3	2.68384		8.69669		0.50655	
	658	1	1	2.99156		8.83657		0.05860	
	659	1	2	2.97324		8.30907		10.17002	
	660	1	3	3.09647		8.02856		0.33817	
	661	1	1	3.20742		7.64724		0.73464	
	662	1	2	2.74237		7.40847		0.93867	
	663	1	3	3.14096		7.38999		1.33325	
	664	1	1	3.46166		7.15060		0.93986	
	665	1	2	2.99143		6.89530		1.10903	
	666	1	3	2.63211		7.30795		1.23361	
	667	1	1	2.44612		7.02238		1.67944	
	668	1	2	2.36181		6.50396		1.48182	
	669	1	3	2.71864		6.39825		1.06181	
	670	1	1	2.65762		5.99771		1.45009	
	671	1	2	3.13865		6.09713		1.72146	
	672	1	3	3.62035		5.87950		1.53300	
	673	1	1	3.26925		6.09321		1.15094	
	674	1	2	2.86890		5.70001		1.14558	
	675	1	3	2.94033		5.26801		0.79460	
	676	1	1	2.68908		5.70225		0.54318	
	677	1	2	2.54861		6.17248		0.27102	
	678	1	3	2.38438		5.63983		0.20605	
	679	1	1	1.87713		5.42932		0.32136	
	680	1	2	1.69331		5.91925		0.52406	
	681	1	3	1.27027		5.98032		0.16043	
	682	1	1	1.48763		6.24785		10.01961	
	683	1	2	1.18395		5.81905		9.82259	
	684	1	3	0.96958		6.18582		9.45594	
	685	1	1	0.87442		6.73841		9.47838	
	686	1	2	0.85583		7.12545		9.07246	
	687	1	3	0.94908		7.67154		9.16190	
	688	1	1	1.45486		7.58070		8.93640	
	689	1	2	2.01194		7.54603		8.99446	
	690	1	3	1.91137		7.83032		8.52120	
	691	1	1	1.37683		7.99993		8.50077	
	692	1	2	1.77077		8.39533		8.44258	
	693	1	3	2.09686		8.29854		8.88891	
	694	1	1	2.01165		8.13197		8.35985	
	695	1	2	2.39813		8.34233		8.01157	
	696	1	3	2.17830		8.84418		7.89021	
	697	1	1	1.89567		8.59981		7.47150	
	698	1	2	1.78222		8.05458		7.54051	
	699	1	3	1.89266		7.50440		7.53640	
	700	1	1	1.63643		7.46634		8.03421	
	701	1	2	1.74930		7.95894		8.27815	
	702	1	3	1.20421		7.87880		8.17154	
	703	1	1	1.22717		7.40625		7.86976	
	704	1	2	1.15840		6.85017		7.83871	
	705	1	3	1.43389		7.12816		8.24087	
	706	1	1	1.56974		7.28672		8.76175	
	707	1	2	1.18429		7.61122		8.51470	
	708	1	3	0.93962		7.50844		8.02024	
	709	1	1	0.55717		7.11151		8.12556	
	710	1	2	0.55666		7.12178		8.68664	
	711	1	3	0.82997		7.49793		8.37243	
	712	1	1	0.50333		7.93263		8.51120	
	713	1	2	0.19605		8.03138		8.97026	
	714	1	3	0.31579		8.34463		8.52032	
	715	1	1	0.57344		8.50020		8.99395	
	716	1	2	0.87469		8.12944		9.28840	
	717	1	3	1.37206		8.06559		9.03651	
	718	1	1	1.52919		7.62289		9.34349	
	719	1	2	1.31462		7.13479		9.51850	
	720	1	3	1.77916		7.43589		9.61046	
	721	1	1	1.76472		7.00440		9.96896	
	722	1	2	1.85544		6.76960		0.16851	
	723	1	3	2.34482		6.70246		10.20422	
	724	1	1	2.83947		6.83427		9.97432	
	725	1	2	3.32210		6.94935		10.23651	
	726	1	3	3.01611		6.47897		10.23145	
	727	1	1	2.73548		6.51402		9.74675	
	728	1	2	2.55215		6.02023		9.55318	
	729	1	3	2.91644		6.18979		9.94491	
	730	1	1	2.73775		5.81625		0.02165	
	731	1	2	2.43731		6.19324		10.03639	
	732	1	3	1.90169		6.30923		10.15711	
	733	1	1	2.12546		6.30951		9.64248	
	734	1	2	2.60882		6.53122		9.46326	
	735	1	3	2.38163		7.01546		9.29354	
	736	1	1	2.83876		7.33137		9.37190	
	737	1	2	3.11781		7.46852		9.83906	
	738	1	3	2.59958		7.68378		9.84263	
	739	1	1	3.13886		7.81272		9.75623	
	740	1	2	3.27708		7.53871		9.28641	
	741	1	3	3.67874		7.32626		9.61574	
	742	1	1	3.93746		7.44813		10.09856	
	743	1	2	4.31331		7.10455		9.86276	
	744	1	3	4.52320		7.62492		9.87103	
	745	1	1	4.88070		7.27152		10.12046	
	746	1	2	4.68036		6.79921		9.89306	
	747	1	3	4.99938		6.42374		10.16169	
	748	1	1	4.72223		6.51152		0.33969	
	749	1	2	4.84214		6.83218		10.19704	
	750	1	3	4.50283		6.55423		9.84701	
	751	1	1	4.17785		6.87512		10.17310	
	752	1	2	4.47458		7.34727		10.11027	
	753	1	3	4.73040		7.05788		9.70318	
	754	1	1	5.06516		6.98032		9.25952	
	755	1	2	4.80686		7.37869		9.55868	
	756	1	3	4.38310		7.63209		9.29197	
	757	1	1	4.76997		8.02769		9.38548	
	758	1	2	4.41570		8.45709		9.31466	
	759	1	3	4.47369		8.65937		9.83488	
	760	1	1	4.71043		9.15736		9.93916	
	761	1	2	5.10507		9.50305		10.13834	
	762	1	3	5.36560		9.12919		0.16386	
	763	1	1	5.01701		8.72848		0.34504	
	764	1	2	5.12946		8.86855		0.87669	
	765	1	3	5.63194		8.96473		1.10730	
	766	1	1	5.86451		8.98311		1.61768	
	767	1	2	5.96857		9.48906		1.39836	
	768	1	3	5.80323		9.86882		1.77698	
	769	1	1	5.70325		9.92784		1.22795	
	770	1	2	5.33332		9.92914		0.80598	
	771	1	3	4.98253		9.86775		0.37229	
	772	1	1	5.19162		10.29144		0.06951	
	773	1	2	5.13643		0.35565		9.94989	
	774	1	3	5.58389		0.41036		9.61568	
	775	1	1	5.87783		0.82975		9.84509	
	776	1	2	6.30962		0.71698		9.50486	
	777	1	3	6.32325		0.17897		9.34588	
	778	1	1	6.71664		10.08107		9.33035	
	779	1	2	6.32455		10.15794		9.72440	
	780	1	3	6.48633		0.26736		10.07004	
	781	1	1	6.69321		0.74586		9.86232	
	782	1	2	6.93489		1.12801		10.19469	
	783	1	3	7.04031		0.89199		9.69660	
	784	1	1	7.24875		0.81185		10.21142	
	785	1	2	7.71820		1.01234		9.97834	
	786	1	3	8.20297		1.24983		10.13168	
	787	1	1	7.74241		1.01225		0.04497	
	788	1	2	7.97955		1.05058		0.55213	
	789	1	3	8.33311		1.34117		0.22738	
	790	1	1	8.40049		1.60580		0.71763	