#-----------------------------------------------------------------------------------           
# NANOPOLY - POLYMER NANOCOMPOSITE STRUCTURAL DATA FILE                                        
#-----------------------------------------------------------------------------------           
# FILENAME:  test_structure.in                                                                  
# DATE: 2020-11-05                                                                                
#-----------------------------------------------------------------------------------           
                                                                                               
640 atoms                                                             
639 bonds                                                             
                                                                                               
3 atom types                                            
1 bond types                                            
                                                                                    
0.0000 3.0300 xlo xhi            
0.0000 3.0300 ylo yhi            
0.0000 3.0300 zlo zhi            
                                                                                    
Masses                                                                              
                                                                                    
1	1.0
2	1.0
3	1.0


Atoms                                                                               

	1	1	1	1.37491		2.42613		1.31465	
	2	1	2	1.34546		2.58333		0.66052	
	3	1	3	1.80389		2.34513		0.22858	
	4	1	1	2.04145		2.20471		2.64431	
	5	1	2	2.48897		2.14479		0.11392	
	6	1	3	2.37800		2.41302		2.53629	
	7	1	1	2.53977		2.57971		0.13836	
	8	1	2	2.71686		0.19490		0.21477	
	9	1	3	2.98771		2.85656		0.70918	
	10	1	1	0.50714		2.83417		0.32047	
	11	1	2	0.10910		2.76156		2.81217	
	12	1	3	0.04896		0.06939		0.36158	
	13	1	1	0.34663		2.61911		3.02525	
	14	1	2	2.89726		2.73716		2.56727	
	15	1	3	0.01790		0.03463		1.99846	
	16	1	1	3.00740		0.66898		2.22079	
	17	1	2	0.27621		1.16447		1.87630	
	18	1	3	0.88893		0.97366		1.67226	
	19	1	1	0.51613		0.49305		1.38329	
	20	1	2	0.44791		0.21853		1.99441	
	21	1	3	0.55502		0.80049		2.31584	
	22	1	1	0.83131		0.26985		2.00672	
	23	1	2	0.25931		0.58139		1.83578	
	24	1	3	0.39049		0.78935		1.20886	
	25	1	1	0.29843		1.45184		1.13073	
	26	1	2	0.63620		2.01634		1.27470	
	27	1	3	0.51291		2.63662		1.50603	
	28	1	1	1.06842		2.29682		1.33453	
	29	1	2	1.60432		2.70087		1.27946	
	30	1	3	1.84749		2.27576		0.81726	
	31	1	1	2.44940		2.11133		0.56399	
	32	1	2	2.61648		1.53596		0.25658	
	33	1	3	2.71151		0.87019		0.22202	
	34	1	1	2.12991		0.54186		0.30817	
	35	1	2	1.99273		0.03083		0.72469	
	36	1	3	2.57876		2.74269		0.81869	
	37	1	1	2.18908		2.36482		1.21723	
	38	1	2	2.34492		3.01346		1.12528	
	39	1	3	2.17741		0.61749		1.27832	
	40	1	1	1.81692		1.18285		1.21596	
	41	1	2	2.18140		1.27645		0.65751	
	42	1	3	2.29349		0.93910		1.22944	
	43	1	1	2.77789		1.40277		1.16744	
	44	1	2	0.15419		1.41798		0.63064	
	45	1	3	0.11533		1.93044		1.06577	
	46	1	1	2.54056		2.19727		0.93722	
	47	1	2	2.04021		1.74865		0.89403	
	48	1	3	1.82881		1.29343		0.44508	
	49	1	1	2.18456		1.85864		0.35876	
	50	1	2	2.73657		1.98094		0.72456	
	51	1	3	2.89843		1.34177		0.86147	
	52	1	1	2.94382		0.76554		1.20696	
	53	1	2	2.38030		0.90141		0.86423	
	54	1	3	1.76380		0.92777		0.59461	
	55	1	1	1.44579		1.43729		0.89914	
	56	1	2	0.96398		1.77071		1.23104	
	57	1	3	1.05601		1.84740		1.89371	
	58	1	1	1.64359		1.59858		2.10890	
	59	1	2	1.73397		2.23624		2.30562	
	60	1	3	1.34796		2.22532		2.85730	
	61	1	1	1.24500		2.10613		2.20257	
	62	1	2	0.68808		1.75040		2.07305	
	63	1	3	1.15888		1.84350		1.60065	
	64	1	1	1.65567		2.28913		1.51077	
	65	1	2	1.70811		1.85045		1.00256	
	66	1	3	2.10525		1.31224		1.08055	
	67	1	1	2.13628		0.95218		0.51234	
	68	1	2	1.85523		0.52826		0.95367	
	69	1	3	1.90493		0.25105		1.56535	
	70	1	1	1.40506		0.69297		1.65651	
	71	1	2	1.12515		1.27402		1.85018	
	72	1	3	0.85744		1.24563		1.23293	
	73	1	1	0.34509		1.61852		1.46081	
	74	1	2	0.05203		2.07628		1.85835	
	75	1	3	2.56214		1.93271		1.45513	
	76	1	1	1.94722		1.74981		1.65980	
	77	1	2	2.40874		1.30336		1.86268	
	78	1	3	2.97329		0.93628		1.86108	
	79	1	1	0.46244		1.15226		2.23163	
	80	1	2	0.61125		1.51336		2.78021	
	81	1	3	0.90825		2.04662		2.49578	
	82	1	1	0.60618		2.64401		2.56892	
	83	1	2	1.09633		3.01159		2.84840	
	84	1	3	0.89560		0.42987		0.27907	
	85	1	1	1.05858		2.80925		0.33900	
	86	1	2	1.53437		2.35376		0.47909	
	87	1	3	1.94172		2.05888		0.03121	
	88	1	1	1.83782		1.72079		0.60425	
	89	1	2	1.39291		1.76671		0.10084	
	90	1	3	1.40789		1.18521		0.44012	
	91	1	1	1.07030		0.60997		0.53290	
	92	1	2	1.05166		1.11839		0.09172	
	93	1	3	1.07949		1.78202		3.01085	
	94	1	1	1.74826		1.84441		2.96255	
	95	1	2	2.09166		1.71069		2.39893	
	96	1	3	1.99444		1.05562		2.27686	
	97	1	1	1.66084		0.94588		1.70228	
	98	1	2	1.50874		0.31046		1.86532	
	99	1	3	1.83108		2.90267		2.26270	
	100	1	1	2.48952		2.93831		2.39931	
	101	1	2	2.87558		2.45251		2.66090	
	102	1	3	0.25502		2.95895		2.48958	
	103	1	1	0.29860		2.67165		1.88210	
	104	1	2	0.84457		2.30090		1.74820	
	105	1	3	0.32071		2.43251		2.15035	
	106	1	1	0.25733		2.20966		1.51805	
	107	1	2	2.89064		1.66743		1.56374	
	108	1	3	2.38154		1.72837		1.12720	
	109	1	1	2.28581		2.24987		1.54235	
	110	1	2	2.75599		1.95329		1.16229	
	111	1	3	0.37494		2.07833		1.03308	
	112	1	1	1.03166		2.22191		0.99329	
	113	1	2	0.77067		2.71976		1.36411	
	114	1	3	1.13140		2.81041		0.80274	
	115	1	1	0.98710		0.21310		1.29815	
	116	1	2	1.28332		2.70272		1.56966	
	117	1	3	1.50777		2.08071		1.69692	
	118	1	1	1.90453		1.93793		2.22196	
	119	1	2	1.29254		1.68621		2.09718	
	120	1	3	0.98385		1.08829		2.07119	
	121	1	1	1.02596		0.57462		1.63779	
	122	1	2	1.18280		0.01042		1.97028	
	123	1	3	0.97189		0.50209		2.37924	
	124	1	1	0.45357		0.52857		2.80833	
	125	1	2	2.89417		0.21151		2.88280	
	126	1	3	2.85737		2.71126		0.26627	
	127	1	1	2.41216		2.87230		2.81739	
	128	1	2	1.96703		0.14906		2.41586	
	129	1	3	2.17695		2.54631		2.32084	
	130	1	1	1.82916		2.52415		1.74463	
	131	1	2	2.32546		2.82398		1.40219	
	132	1	3	2.90101		0.08211		1.60016	
	133	1	1	2.45711		0.58741		1.56703	
	134	1	2	1.88411		0.38161		1.85477	
	135	1	3	2.06395		1.02786		1.79564	
	136	1	1	1.65738		1.55275		1.68309	
	137	1	2	2.29885		1.62630		1.49185	
	138	1	3	2.26695		2.09780		1.01212	
	139	1	1	1.64047		2.34274		1.04370	
	140	1	2	1.42286		2.96906		1.16132	
	141	1	3	1.04851		0.49875		1.15196	
	142	1	1	1.61690		0.66583		0.83182	
	143	1	2	1.80527		0.98242		0.26812	
	144	1	3	1.58601		1.06527		2.66682	
	145	1	1	0.94224		1.18748		2.82206	
	146	1	2	0.92600		0.79998		2.27155	
	147	1	3	0.38490		1.05261		2.58278	
	148	1	1	2.76592		1.15016		2.43184	
	149	1	2	0.04304		1.43626		1.90525	
	150	1	3	0.71011		1.38155		1.83114	
	151	1	1	1.24648		0.98308		1.91482	
	152	1	2	1.65763		0.94532		1.38284	
	153	1	3	1.56053		1.26310		1.96855	
	154	1	1	1.67128		1.47839		1.34018	
	155	1	2	1.96212		1.58682		1.93778	
	156	1	3	1.92240		2.20927		1.68391	
	157	1	1	2.47181		2.59721		1.71727	
	158	1	2	2.77192		1.99481		1.73989	
	159	1	3	2.91391		1.90067		2.39139	
	160	1	1	0.50412		1.89570		2.65368	
	161	1	2	0.10677		1.78373		0.15569	
	162	1	3	2.88771		1.23473		0.45577	
	163	1	1	2.69149		0.72234		0.84618	
	164	1	2	0.30956		0.54395		0.88691	
	165	1	3	2.77472		0.56185		0.52070	
	166	1	1	2.72085		0.55056		2.87954	
	167	1	2	2.71281		1.21113		3.01015	
	168	1	3	2.08385		1.45022		0.00676	
	169	1	1	2.46902		1.26066		2.51793	
	170	1	2	2.73571		1.15462		1.90875	
	171	1	3	0.28832		0.97584		1.62225	
	172	1	1	2.65648		0.98950		1.49873	
	173	1	2	2.08486		1.31147		1.65056	
	174	1	3	2.38359		1.77808		2.03332	
	175	1	1	2.74494		2.28941		2.28119	
	176	1	2	2.20452		2.22438		1.88473	
	177	1	3	1.98025		2.77228		1.56382	
	178	1	1	2.37885		3.02364		2.04487	
	179	1	2	2.71287		0.03426		2.62818	
	180	1	3	2.42229		0.47467		2.20976	
	181	1	1	2.94886		0.36862		2.61590	
	182	1	2	2.63358		0.96309		2.64187	
	183	1	3	2.44426		0.69059		0.19786	
	184	1	1	2.01343		1.04887		2.85437	
	185	1	2	1.52191		0.69921		0.12374	
	186	1	3	1.15889		0.58819		2.59753	
	187	1	1	0.59533		0.28959		2.38141	
	188	1	2	0.18537		0.25896		1.84806	
	189	1	3	2.60957		2.99834		1.80304	
	190	1	1	3.02709		0.32513		2.19274	
	191	1	2	0.16009		0.24966		1.54373	
	192	1	3	0.42854		0.26977		0.92648	
	193	1	1	0.26327		2.77496		1.31473	
	194	1	2	0.77330		2.35410		1.44208	
	195	1	3	0.54523		2.91397		1.14542	
	196	1	1	0.99150		0.28261		0.83656	
	197	1	2	0.54077		2.84435		0.66034	
	198	1	3	0.41549		0.10279		0.06487	
	199	1	1	0.10668		0.69470		3.00688	
	200	1	2	0.11056		0.10141		2.68834	
	201	1	3	2.85538		0.68121		2.49864	
	202	1	1	2.47452		0.77800		1.95179	
	203	1	2	2.29275		0.23914		1.59115	
	204	1	3	2.45578		0.36532		0.95008	
	205	1	1	1.83993		0.15755		1.12625	
	206	1	2	1.86062		0.14489		0.45328	
	207	1	3	1.61430		2.74764		0.91182	
	208	1	1	1.07128		2.94092		1.26002	
	209	1	2	0.76697		2.44677		0.91843	
	210	1	3	1.30847		2.15416		1.19161	
	211	1	1	0.73552		2.00722		0.86973	
	212	1	2	0.17913		2.28689		0.61343	
	213	1	3	0.70611		2.10040		0.23794	
	214	1	1	0.42417		1.66943		0.67182	
	215	1	2	0.26016		1.02429		0.77365	
	216	1	3	0.24568		0.60597		0.24613	
	217	1	1	0.87107		0.82440		0.12506	
	218	1	2	1.22567		1.34197		2.91043	
	219	1	3	0.77830		1.53700		0.34442	
	220	1	1	0.73798		2.07316		2.96899	
	221	1	2	1.06085		2.65345		0.05076	
	222	1	3	1.69587		2.83825		0.17754	
	223	1	1	2.18139		0.27487		0.17961	
	224	1	2	1.52367		0.13947		0.23000	
	225	1	3	1.12020		0.64250		0.03596	
	226	1	1	1.41963		0.09248		2.81840	
	227	1	2	2.07059		0.25191		2.88403	
	228	1	3	1.47839		0.45322		2.63453	
	229	1	1	1.18894		2.90498		2.44656	
	230	1	2	1.76707		2.76374		2.76166	
	231	1	3	2.22461		2.73320		0.22481	
	232	1	1	2.22252		0.03435		2.66846	
	233	1	2	2.72377		2.94978		0.07331	
	234	1	3	0.16312		2.74172		0.50908	
	235	1	1	2.53835		2.86371		0.40977	
	236	1	2	2.13873		2.65118		2.94117	
	237	1	3	1.55721		2.48084		2.64743	
	238	1	1	1.01802		2.54381		2.24895	
	239	1	2	0.51124		2.34391		1.85311	
	240	1	3	0.01426		1.99494		1.56207	
	241	1	1	3.01795		2.66196		1.65072	
	242	1	2	0.54566		2.88574		1.95462	
	243	1	3	0.70177		0.45795		1.69686	
	244	1	1	1.13156		0.90013		1.42626	
	245	1	2	1.28878		0.69141		0.80562	
	246	1	3	1.23665		1.28752		1.11452	
	247	1	1	0.72385		1.65892		0.88525	
	248	1	2	1.25813		1.69886		1.29320	
	249	1	3	1.73584		1.34870		0.97282	
	250	1	1	1.15696		1.69088		1.00863	
	251	1	2	1.03583		1.27937		1.52772	
	252	1	3	0.49781		1.07760		1.17659	
	253	1	1	0.00473		1.35752		1.53989	
	254	1	2	2.96299		1.48438		2.19733	
	255	1	3	2.61207		2.01141		2.42662	
	256	1	1	2.61271		1.49959		1.98899	
	257	1	2	2.96011		1.57588		2.56080	
	258	1	3	0.41019		1.39967		2.99892	
	259	1	1	0.12157		1.20377		2.42290	
	260	1	2	0.79172		1.20760		2.48889	
	261	1	3	1.43195		1.06204		2.33925	
	262	1	1	1.89390		0.57604		2.40158	
	263	1	2	1.68971		0.24168		2.94929	
	264	1	3	1.59208		0.19404		2.28470	
	265	1	1	1.26016		0.76794		2.16664	
	266	1	2	1.92824		0.80105		2.08890	
	267	1	3	2.27196		1.35158		2.26846	
	268	1	1	2.74355		1.79677		2.08711	
	269	1	2	0.37296		1.83183		1.95510	
	270	1	3	0.89709		1.47159		2.17641	
	271	1	1	1.21972		1.96862		2.49632	
	272	1	2	1.40551		2.60773		2.39387	
	273	1	3	0.95593		0.06565		2.27859	
	274	1	1	0.72332		2.87380		1.68686	
	275	1	2	1.17036		2.41977		1.90477	
	276	1	3	1.42347		2.20764		2.49164	
	277	1	1	0.75900		2.31671		2.49938	
	278	1	2	0.09917		2.18222		2.49635	
	279	1	3	2.81348		1.95609		0.01652	
	280	1	1	0.44108		1.96190		0.16144	
	281	1	2	0.73588		2.43266		2.81072	
	282	1	3	0.73955		2.25206		2.16200	
	283	1	1	0.30138		2.55774		2.57193	
	284	1	2	0.87492		2.90524		2.51050	
	285	1	3	0.80697		2.82655		0.14583	
	286	1	1	1.09910		2.37335		0.54924	
	287	1	2	1.03876		2.56053		1.19329	
	288	1	3	1.26702		0.05630		1.54674	
	289	1	1	1.31465		0.12805		0.87886	
	290	1	2	1.88947		2.83084		1.00531	
	291	1	3	2.04337		2.54146		0.41704	
	292	1	1	2.69233		2.36774		0.37080	
	293	1	2	2.52557		2.53407		2.76993	
	294	1	3	2.25369		2.12377		2.31036	
	295	1	1	2.43313		1.65696		2.76132	
	296	1	2	1.82807		1.88711		2.57582	
	297	1	3	2.42244		2.15214		2.74889	
	298	1	1	2.36120		2.39011		0.34587	
	299	1	2	2.33038		1.85755		0.75685	
	300	1	3	1.97567		2.02963		1.30278	
	301	1	1	2.05612		1.91558		1.96156	
	302	1	2	2.47443		1.72773		2.45472	
	303	1	3	0.06913		1.82796		2.68532	
	304	1	1	0.45159		1.54504		2.20872	
	305	1	2	0.82978		1.65724		1.66295	
	306	1	3	1.42790		1.39063		1.50598	
	307	1	1	1.41390		0.97966		0.97270	
	308	1	2	1.25169		0.80284		0.34350	
	309	1	3	1.12061		0.38869		2.85894	
	310	1	1	1.20768		0.32423		0.49358	
	311	1	2	0.97444		0.95586		0.50432	
	312	1	3	1.41083		1.30403		0.12774	
	313	1	1	1.43464		1.87126		0.48990	
	314	1	2	0.83324		2.15214		0.60347	
	315	1	3	0.19047		1.95418		0.63708	
	316	1	1	2.92123		2.48187		0.92943	
	317	1	2	2.63644		0.03923		0.76398	
	318	1	3	2.21306		2.59344		0.98271	
	319	1	1	1.98425		2.84213		0.40024	
	320	1	2	1.48600		2.85672		2.97746	
	321	1	3	1.75956		0.38661		0.20274	
	322	1	1	1.62009		2.95619		0.67395	
	323	1	2	1.19594		0.04714		0.16508	
	324	1	3	0.74466		0.29322		2.76004	
	325	1	1	1.07919		0.87755		2.77069	
	326	1	2	0.48232		0.94499		0.04512	
	327	1	3	0.46679		1.38888		0.55127	
	328	1	1	2.91881		1.71635		0.66160	
	329	1	2	2.36104		1.40695		0.44565	
	330	1	3	2.31260		1.22037		2.83043	
	331	1	1	2.72593		1.50769		2.38313	
	332	1	2	0.14517		1.56218		2.88182	
	333	1	3	0.11683		1.06993		0.31047	
	334	1	1	0.77040		1.23139		0.29475	
	335	1	2	0.52953		0.79457		0.74712	
	336	1	3	2.99806		0.42338		0.76817	
	337	1	1	2.88240		1.04034		1.01199	
	338	1	2	2.43963		1.00525		0.50583	
	339	1	3	2.41219		0.33825		0.59433	
	340	1	1	2.78638		0.32724		1.15409	
	341	1	2	0.00845		0.74733		1.61611	
	342	1	3	2.50210		0.38210		1.79613	
	343	1	1	1.91054		0.69135		1.70724	
	344	1	2	1.85689		1.27450		2.03970	
	345	1	3	1.66649		1.53776		2.62954	
	346	1	1	1.00261		1.64721		2.65692	
	347	1	2	1.56359		1.99972		2.77737	
	348	1	3	1.34176		2.54418		0.07573	
	349	1	1	1.05168		2.03653		0.40983	
	350	1	2	0.53256		2.46494		0.43111	
	351	1	3	3.00396		2.42139		0.05756	
	352	1	1	2.78603		1.88440		2.74461	
	353	1	2	0.28874		1.93894		2.33630	
	354	1	3	0.14139		1.68906		1.72858	
	355	1	1	2.84337		2.21431		1.99312	
	356	1	2	2.33637		2.65249		2.05971	
	357	1	3	1.82938		0.05579		1.96660	
	358	1	1	1.71670		0.49887		1.47216	
	359	1	2	1.39809		1.07564		1.61109	
	360	1	3	0.84625		0.88772		1.27400	
	361	1	1	1.07958		1.35618		0.85025	
	362	1	2	0.57263		1.60220		1.21895	
	363	1	3	0.94125		1.76852		0.68050	
	364	1	1	0.78712		1.59399		0.04863	
	365	1	2	1.14905		1.41087		2.54109	
	366	1	3	1.40192		0.87904		2.86773	
	367	1	1	1.69744		1.27581		2.41087	
	368	1	2	1.87047		0.75733		2.80422	
	369	1	3	2.44667		0.43643		2.94019	
	370	1	1	2.98097		0.38150		0.31637	
	371	1	2	0.48807		0.13301		0.63770	
	372	1	3	0.83321		0.68535		0.80880	
	373	1	1	1.36697		0.66358		1.21879	
	374	1	2	1.60766		1.12407		0.79043	
	375	1	3	1.01333		0.87893		0.99082	
	376	1	1	1.18366		0.40245		1.43515	
	377	1	2	1.56260		2.89664		1.58610	
	378	1	3	1.00381		2.74919		1.93176	
	379	1	1	0.49832		0.09147		1.68811	
	380	1	2	0.01684		2.94393		1.25208	
	381	1	3	2.87467		2.32409		1.45115	
	382	1	1	2.78627		2.83879		1.02601	
	383	1	2	0.29005		2.44043		1.12534	
	384	1	3	0.80570		2.75966		0.83265	
	385	1	1	0.77868		2.41521		0.25464	
	386	1	2	0.27584		2.29010		2.85456	
	387	1	3	2.96412		2.22965		0.40166	
	388	1	1	0.25566		2.65821		0.80961	
	389	1	2	0.54290		2.07278		0.64156	
	390	1	3	0.30193		1.53334		0.31844	
	391	1	1	0.74119		1.36403		0.79996	
	392	1	2	0.63825		1.24537		1.45479	
	393	1	3	0.67811		0.64580		1.15081	
	394	1	1	0.29061		0.09526		1.16574	
	395	1	2	0.20230		0.28162		0.52468	
	396	1	3	0.71233		0.71985		0.48868	
	397	1	1	0.64180		0.08308		0.28127	
	398	1	2	0.40494		0.21359		2.69455	
	399	1	3	0.59706		0.45985		0.26114	
	400	1	1	0.01533		0.75337		0.43115	
	401	1	2	2.96071		1.36168		0.15499	
	402	1	3	2.57538		1.75242		0.54527	
	403	1	1	2.09413		2.18977		0.37033	
	404	1	2	1.68295		2.51893		2.98073	
	405	1	3	2.19802		2.94929		0.00521	
	406	1	1	1.69776		0.11365		2.62847	
	407	1	2	1.87751		2.59443		2.28276	
	408	1	3	1.58855		2.02141		2.07873	
	409	1	1	1.31851		1.65660		2.57619	
	410	1	2	0.99888		2.20453		2.80220	
	411	1	3	1.60796		2.18096		0.05845	
	412	1	1	1.57124		1.53336		0.23937	
	413	1	2	1.66603		2.04565		0.66604	
	414	1	3	2.17933		1.60976		0.66696	
	415	1	1	2.54974		1.16924		1.01654	
	416	1	2	1.94854		0.87006		0.96636	
	417	1	3	2.19667		0.74897		1.58055	
	418	1	1	1.63973		0.67877		1.95253	
	419	1	2	1.50084		0.02134		1.99680	
	420	1	3	1.02817		0.49923		2.03774	
	421	1	1	0.81618		0.89316		2.54108	
	422	1	2	0.56894		0.80368		1.92113	
	423	1	3	0.01852		1.15277		2.09037	
	424	1	1	0.40901		1.46063		2.54447	
	425	1	2	0.23100		0.85473		2.77831	
	426	1	3	0.33170		0.73746		2.12288	
	427	1	1	2.91106		0.38372		1.76896	
	428	1	2	2.76136		2.92405		2.20633	
	429	1	3	2.65417		0.42789		2.60255	
	430	1	1	2.44586		0.96696		2.25688	
	431	1	2	2.28126		0.76203		2.87687	
	432	1	3	2.09102		1.32321		2.55694	
	433	1	1	2.23185		0.66520		2.58284	
	434	1	2	1.57509		0.75040		2.46082	
	435	1	3	2.08484		0.39556		2.20060	
	436	1	1	2.09929		2.82563		2.50614	
	437	1	2	2.51731		0.10030		2.93732	
	438	1	3	2.17763		0.16058		0.48564	
	439	1	1	1.53353		0.34584		0.55116	
	440	1	2	2.11066		0.64326		0.72987	
	441	1	3	1.60438		0.33061		1.04515	
	442	1	1	2.10882		3.02197		1.33556	
	443	1	2	2.05930		0.34275		0.76288	
	444	1	3	2.55967		0.57477		1.14923	
	445	1	1	2.75071		0.97404		0.64172	
	446	1	2	0.31022		0.66551		0.53799	
	447	1	3	0.05841		0.44189		1.12114	
	448	1	1	0.70998		0.27243		1.10679	
	449	1	2	0.18202		2.90864		0.96660	
	450	1	3	0.58697		0.19772		1.39981	
	451	1	1	1.13497		0.28522		1.78127	
	452	1	2	1.62542		0.13703		1.34427	
	453	1	3	1.98498		2.60786		1.23698	
	454	1	1	2.61773		2.48602		1.04137	
	455	1	2	2.58841		2.98390		1.49384	
	456	1	3	2.68894		2.59279		2.03273	
	457	1	1	2.02490		2.66676		1.94870	
	458	1	2	2.60134		2.33297		1.84985	
	459	1	3	2.52907		1.67062		1.75217	
	460	1	1	2.09202		1.58740		1.24667	
	461	1	2	1.97940		0.97210		1.49604	
	462	1	3	2.24777		0.50944		1.90518	
	463	1	1	2.21660		2.87164		1.82426	
	464	1	2	2.60488		2.66174		1.31567	
	465	1	3	3.01606		2.13290		1.24692	
	466	1	1	2.66083		2.38662		0.73417	
	467	1	2	2.87859		1.90348		0.31868	
	468	1	3	0.33997		1.98332		2.89520	
	469	1	1	2.82480		1.64256		0.06557	
	470	1	2	2.40081		1.12349		0.13084	
	471	1	3	2.97084		1.23560		2.82030	
	472	1	1	0.59652		1.08456		2.79308	
	473	1	2	0.53039		1.01879		0.42999	
	474	1	3	0.76814		0.79686		2.87034	
	475	1	1	0.20167		1.15086		2.95560	
	476	1	2	0.30708		0.67049		2.49559	
	477	1	3	2.72510		0.50555		2.26811	
	478	1	1	3.01006		1.01264		2.60742	
	479	1	2	0.17343		0.39298		2.78658	
	480	1	3	0.65283		2.96277		2.89549	
	481	1	1	0.82502		2.95827		0.51650	
	482	1	2	0.53812		2.62556		1.02686	
	483	1	3	0.96449		2.57654		1.54578	
	484	1	1	1.55224		2.47367		1.85793	
	485	1	2	1.48741		2.91827		2.35952	
	486	1	3	2.12198		2.88460		2.13669	
	487	1	1	2.71280		0.17242		2.07838	
	488	1	2	2.95783		2.61553		2.29974	
	489	1	3	0.44726		2.20665		2.42814	
	490	1	1	1.06698		2.44268		2.54522	
	491	1	2	1.06387		1.83949		2.24585	
	492	1	3	1.47305		2.37052		2.18219	
	493	1	1	1.20328		2.65058		2.73198	
	494	1	2	1.23037		2.29298		0.27195	
	495	1	3	1.12065		1.62866		0.28234	
	496	1	1	1.24612		2.14928		0.69061	
	497	1	2	1.43596		1.51554		0.56487	
	498	1	3	1.78146		1.26404		0.04444	
	499	1	1	2.13223		0.96851		2.58139	
	500	1	2	2.12222		1.61706		2.76240	
	501	1	3	2.04978		1.15016		0.21223	
	502	1	1	2.58967		1.27097		0.59616	
	503	1	2	0.02041		1.62956		0.93171	
	504	1	3	0.30987		1.25426		1.41007	
	505	1	1	0.57916		1.84504		1.58877	
	506	1	2	1.17199		2.14289		1.70415	
	507	1	3	0.67957		2.59059		1.80691	
	508	1	1	0.19094		2.76597		2.23581	
	509	1	2	0.17573		0.37431		2.44976	
	510	1	3	0.70128		0.55149		2.06782	
	511	1	1	0.60728		2.93885		2.24571	
	512	1	2	2.99429		0.04358		2.39365	
	513	1	3	2.80330		2.67810		2.90413	
	514	1	1	2.26234		2.28759		2.99550	
	515	1	2	1.77695		1.95362		0.29158	
	516	1	3	2.41433		1.80232		0.13558	
	517	1	1	2.72007		1.41843		2.70446	
	518	1	2	2.25925		1.90701		2.65528	
	519	1	3	1.97520		1.67999		0.19207	
	520	1	1	2.10154		2.05124		0.73950	
	521	1	2	1.44604		1.96790		0.86929	
	522	1	3	1.12411		1.46069		0.56503	
	523	1	1	0.55798		1.78306		0.39460	
	524	1	2	0.25704		2.36286		0.23106	
	525	1	3	2.72685		2.22768		2.91266	
	526	1	1	2.57472		2.59357		2.36818	
	527	1	2	2.01430		2.27491		2.17361	
	528	1	3	1.56686		1.79623		2.32896	
	529	1	1	1.23366		1.58706		1.78243	
	530	1	2	0.84914		2.05221		1.48368	
	531	1	3	1.50026		1.93749		1.35582	
	532	1	1	1.28827		2.46889		1.00065	
	533	1	2	1.65733		2.63069		0.46112	
	534	1	3	1.86044		2.99679		2.96369	
	535	1	1	1.34360		0.38098		0.05532	
	536	1	2	1.19285		0.21412		2.45058	
	537	1	3	1.44214		2.72048		2.10833	
	538	1	1	1.86236		2.42566		2.54418	
	539	1	2	1.72306		2.77866		1.98789	
	540	1	3	1.31381		0.26993		2.10734	
	541	1	1	0.85929		0.18786		1.61729	
	542	1	2	0.22962		2.98355		1.57161	
	543	1	3	2.69515		0.30992		1.48303	
	544	1	1	2.15584		0.23359		1.08705	
	545	1	2	2.19505		2.78675		0.61317	
	546	1	3	2.84277		2.61379		0.54978	
	547	1	1	2.21219		2.42048		0.68570	
	548	1	2	2.50682		2.16678		1.23553	
	549	1	3	2.63094		1.59771		0.89756	
	550	1	1	0.03572		1.18437		1.20349	
	551	1	2	2.53828		1.40505		1.55927	
	552	1	3	0.05857		1.71481		1.32539	
	553	1	1	0.39523		1.47100		1.85519	
	554	1	2	0.44729		2.11248		2.05335	
	555	1	3	0.73212		1.65971		2.46243	
	556	1	1	1.23232		1.29544		2.19675	
	557	1	2	0.62604		1.10925		1.97039	
	558	1	3	1.07756		1.08489		2.46941	
	559	1	1	1.35877		0.49757		2.29779	
	560	1	2	1.83251		0.93149		2.49967	
	561	1	3	1.49014		1.49447		2.36073	
	562	1	1	1.69175		1.83227		1.81419	
	563	1	2	2.34457		1.91484		1.67110	
	564	1	3	2.29301		1.32251		1.35494	
	565	1	1	2.27163		1.99550		1.36511	
	566	1	2	2.46838		2.07801		2.00382	
	567	1	3	2.99371		2.49683		1.95809	
	568	1	1	2.90613		2.67733		1.31527	
	569	1	2	0.47994		2.38131		1.35086	
	570	1	3	0.71362		2.04935		1.88813	
	571	1	1	0.65226		2.60459		2.26419	
	572	1	2	0.23251		0.10031		2.23411	
	573	1	3	0.41413		2.80887		2.79729	
	574	1	1	0.89765		0.15996		0.04015	
	575	1	2	1.40003		2.79281		0.24838	
	576	1	3	1.84408		2.58021		0.70783	
	577	1	1	1.34121		2.98301		0.51198	
	578	1	2	0.76254		2.63879		0.52323	
	579	1	3	0.51229		2.25246		0.03170	
	580	1	1	0.14680		2.79990		0.17384	
	581	1	2	2.86147		0.17747		0.60733	
	582	1	3	0.02557		0.80147		0.76991	
	583	1	1	0.00696		0.14937		0.93694	
	584	1	2	2.47288		0.28498		1.27884	
	585	1	3	2.73756		0.69852		1.73971	
	586	1	1	2.21168		0.69056		2.16026	
	587	1	2	1.90103		0.38974		2.67648	
	588	1	3	2.16041		0.79086		0.12114	
	589	1	1	2.27352		0.35066		2.65425	
	590	1	2	1.88106		0.67118		0.06778	
	591	1	3	2.38344		0.63369		0.51463	
	592	1	1	1.71584		0.64533		0.42720	
	593	1	2	1.24718		1.05448		0.68495	
	594	1	3	1.90449		1.17981		0.76054	
	595	1	1	1.66181		0.71555		1.18368	
	596	1	2	1.68812		1.23630		1.60983	
	597	1	3	2.34229		1.08068		1.57346	
	598	1	1	2.61126		1.63831		1.30856	
	599	1	2	2.87089		2.15997		0.97101	
	600	1	3	0.48739		2.33351		0.89761	
	601	1	1	0.15057		2.49487		1.45795	
	602	1	2	2.83788		2.83601		1.92663	
	603	1	3	2.55203		2.41728		1.48343	
	604	1	1	2.46526		2.34924		2.14774	
	605	1	2	0.06369		2.10909		2.17734	
	606	1	3	0.02142		2.09805		2.84933	
	607	1	1	0.48673		1.68001		0.06874	
	608	1	2	1.03589		2.06883		0.09543	
	609	1	3	1.47143		1.63024		2.85820	
	610	1	1	1.57672		1.00958		0.06729	
	611	1	2	1.27879		0.85289		2.51406	
	612	1	3	1.00520		0.79721		1.90126	
	613	1	1	1.62258		0.94492		2.12597	
	614	1	2	2.26707		1.12945		2.06225	
	615	1	3	2.78311		1.41479		1.73704	
	616	1	1	2.76030		0.82331		2.05813	
	617	1	2	2.61669		0.23903		2.36057	
	618	1	3	2.15113		0.20502		1.87522	
	619	1	1	1.96181		0.40595		1.26100	
	620	1	2	1.30307		0.29934		1.17060	
	621	1	3	0.76041		0.03543		0.87169	
	622	1	1	0.82099		0.47708		1.37643	
	623	1	2	1.44788		0.29762		1.54457	
	624	1	3	1.70717		0.43221		2.12954	
	625	1	1	2.28933		0.13642		2.29408	
	626	1	2	2.50419		0.74962		2.47098	
	627	1	3	2.93836		0.94089		2.94888	
	628	1	1	0.15856		0.90995		2.32445	
	629	1	2	0.69627		0.57882		2.55832	
	630	1	3	0.56097		2.94916		2.56323	
	631	1	1	0.05086		3.01743		2.99751	
	632	1	2	2.71528		0.52157		0.15328	
	633	1	3	0.33689		0.40443		0.03019	
	634	1	1	0.57738		0.42527		0.65884	
	635	1	2	0.58587		1.09211		0.74840	
	636	1	3	0.89581		1.52654		1.39168	
	637	1	1	0.39769		1.69524		0.97110	
	638	1	2	0.02811		1.61855		0.41342	
	639	1	3	2.58075		1.49656		2.98438	
	640	1	1	2.55654		0.82361		2.97955	
Bonds                                                                               
                                                                                    
	1	1	1	2
	2	1	2	3
	3	1	3	4
	4	1	4	5
	5	1	5	6
	6	1	6	7
	7	1	7	8
	8	1	8	9
	9	1	9	10
	10	1	10	11
	11	1	11	12
	12	1	12	13
	13	1	13	14
	14	1	14	15
	15	1	15	16
	16	1	16	17
	17	1	17	18
	18	1	18	19
	19	1	19	20
	20	1	20	21
	21	1	21	22
	22	1	22	23
	23	1	23	24
	24	1	24	25
	25	1	25	26
	26	1	26	27
	27	1	27	28
	28	1	28	29
	29	1	29	30
	30	1	30	31
	31	1	31	32
	32	1	32	33
	33	1	33	34
	34	1	34	35
	35	1	35	36
	36	1	36	37
	37	1	37	38
	38	1	38	39
	39	1	39	40
	40	1	40	41
	41	1	41	42
	42	1	42	43
	43	1	43	44
	44	1	44	45
	45	1	45	46
	46	1	46	47
	47	1	47	48
	48	1	48	49
	49	1	49	50
	50	1	50	51
	51	1	51	52
	52	1	52	53
	53	1	53	54
	54	1	54	55
	55	1	55	56
	56	1	56	57
	57	1	57	58
	58	1	58	59
	59	1	59	60
	60	1	60	61
	61	1	61	62
	62	1	62	63
	63	1	63	64
	64	1	64	65
	65	1	65	66
	66	1	66	67
	67	1	67	68
	68	1	68	69
	69	1	69	70
	70	1	70	71
	71	1	71	72
	72	1	72	73
	73	1	73	74
	74	1	74	75
	75	1	75	76
	76	1	76	77
	77	1	77	78
	78	1	78	79
	79	1	79	80
	80	1	80	81
	81	1	81	82
	82	1	82	83
	83	1	83	84
	84	1	84	85
	85	1	85	86
	86	1	86	87
	87	1	87	88
	88	1	88	89
	89	1	89	90
	90	1	90	91
	91	1	91	92
	92	1	92	93
	93	1	93	94
	94	1	94	95
	95	1	95	96
	96	1	96	97
	97	1	97	98
	98	1	98	99
	99	1	99	100
	100	1	100	101
	101	1	101	102
	102	1	102	103
	103	1	103	104
	104	1	104	105
	105	1	105	106
	106	1	106	107
	107	1	107	108
	108	1	108	109
	109	1	109	110
	110	1	110	111
	111	1	111	112
	112	1	112	113
	113	1	113	114
	114	1	114	115
	115	1	115	116
	116	1	116	117
	117	1	117	118
	118	1	118	119
	119	1	119	120
	120	1	120	121
	121	1	121	122
	122	1	122	123
	123	1	123	124
	124	1	124	125
	125	1	125	126
	126	1	126	127
	127	1	127	128
	128	1	128	129
	129	1	129	130
	130	1	130	131
	131	1	131	132
	132	1	132	133
	133	1	133	134
	134	1	134	135
	135	1	135	136
	136	1	136	137
	137	1	137	138
	138	1	138	139
	139	1	139	140
	140	1	140	141
	141	1	141	142
	142	1	142	143
	143	1	143	144
	144	1	144	145
	145	1	145	146
	146	1	146	147
	147	1	147	148
	148	1	148	149
	149	1	149	150
	150	1	150	151
	151	1	151	152
	152	1	152	153
	153	1	153	154
	154	1	154	155
	155	1	155	156
	156	1	156	157
	157	1	157	158
	158	1	158	159
	159	1	159	160
	160	1	160	161
	161	1	161	162
	162	1	162	163
	163	1	163	164
	164	1	164	165
	165	1	165	166
	166	1	166	167
	167	1	167	168
	168	1	168	169
	169	1	169	170
	170	1	170	171
	171	1	171	172
	172	1	172	173
	173	1	173	174
	174	1	174	175
	175	1	175	176
	176	1	176	177
	177	1	177	178
	178	1	178	179
	179	1	179	180
	180	1	180	181
	181	1	181	182
	182	1	182	183
	183	1	183	184
	184	1	184	185
	185	1	185	186
	186	1	186	187
	187	1	187	188
	188	1	188	189
	189	1	189	190
	190	1	190	191
	191	1	191	192
	192	1	192	193
	193	1	193	194
	194	1	194	195
	195	1	195	196
	196	1	196	197
	197	1	197	198
	198	1	198	199
	199	1	199	200
	200	1	200	201
	201	1	201	202
	202	1	202	203
	203	1	203	204
	204	1	204	205
	205	1	205	206
	206	1	206	207
	207	1	207	208
	208	1	208	209
	209	1	209	210
	210	1	210	211
	211	1	211	212
	212	1	212	213
	213	1	213	214
	214	1	214	215
	215	1	215	216
	216	1	216	217
	217	1	217	218
	218	1	218	219
	219	1	219	220
	220	1	220	221
	221	1	221	222
	222	1	222	223
	223	1	223	224
	224	1	224	225
	225	1	225	226
	226	1	226	227
	227	1	227	228
	228	1	228	229
	229	1	229	230
	230	1	230	231
	231	1	231	232
	232	1	232	233
	233	1	233	234
	234	1	234	235
	235	1	235	236
	236	1	236	237
	237	1	237	238
	238	1	238	239
	239	1	239	240
	240	1	240	241
	241	1	241	242
	242	1	242	243
	243	1	243	244
	244	1	244	245
	245	1	245	246
	246	1	246	247
	247	1	247	248
	248	1	248	249
	249	1	249	250
	250	1	250	251
	251	1	251	252
	252	1	252	253
	253	1	253	254
	254	1	254	255
	255	1	255	256
	256	1	256	257
	257	1	257	258
	258	1	258	259
	259	1	259	260
	260	1	260	261
	261	1	261	262
	262	1	262	263
	263	1	263	264
	264	1	264	265
	265	1	265	266
	266	1	266	267
	267	1	267	268
	268	1	268	269
	269	1	269	270
	270	1	270	271
	271	1	271	272
	272	1	272	273
	273	1	273	274
	274	1	274	275
	275	1	275	276
	276	1	276	277
	277	1	277	278
	278	1	278	279
	279	1	279	280
	280	1	280	281
	281	1	281	282
	282	1	282	283
	283	1	283	284
	284	1	284	285
	285	1	285	286
	286	1	286	287
	287	1	287	288
	288	1	288	289
	289	1	289	290
	290	1	290	291
	291	1	291	292
	292	1	292	293
	293	1	293	294
	294	1	294	295
	295	1	295	296
	296	1	296	297
	297	1	297	298
	298	1	298	299
	299	1	299	300
	300	1	300	301
	301	1	301	302
	302	1	302	303
	303	1	303	304
	304	1	304	305
	305	1	305	306
	306	1	306	307
	307	1	307	308
	308	1	308	309
	309	1	309	310
	310	1	310	311
	311	1	311	312
	312	1	312	313
	313	1	313	314
	314	1	314	315
	315	1	315	316
	316	1	316	317
	317	1	317	318
	318	1	318	319
	319	1	319	320
	320	1	320	321
	321	1	321	322
	322	1	322	323
	323	1	323	324
	324	1	324	325
	325	1	325	326
	326	1	326	327
	327	1	327	328
	328	1	328	329
	329	1	329	330
	330	1	330	331
	331	1	331	332
	332	1	332	333
	333	1	333	334
	334	1	334	335
	335	1	335	336
	336	1	336	337
	337	1	337	338
	338	1	338	339
	339	1	339	340
	340	1	340	341
	341	1	341	342
	342	1	342	343
	343	1	343	344
	344	1	344	345
	345	1	345	346
	346	1	346	347
	347	1	347	348
	348	1	348	349
	349	1	349	350
	350	1	350	351
	351	1	351	352
	352	1	352	353
	353	1	353	354
	354	1	354	355
	355	1	355	356
	356	1	356	357
	357	1	357	358
	358	1	358	359
	359	1	359	360
	360	1	360	361
	361	1	361	362
	362	1	362	363
	363	1	363	364
	364	1	364	365
	365	1	365	366
	366	1	366	367
	367	1	367	368
	368	1	368	369
	369	1	369	370
	370	1	370	371
	371	1	371	372
	372	1	372	373
	373	1	373	374
	374	1	374	375
	375	1	375	376
	376	1	376	377