#-----------------------------------------------------------------------------------           
# NANOPOLY - POLYMER NANOCOMPOSITE STRUCTURAL DATA FILE                                        
#-----------------------------------------------------------------------------------           
# FILENAME:  test_structure.in                                                                  
# DATE: 2021-10-27                                                                                
#-----------------------------------------------------------------------------------           
                                                                                               
50 atoms                                                             
49 bonds                                                             
                                                                                               
2 atom types                                      
1 bond types                                            
                                                                                    
0.0000 50.0000 xlo xhi            
0.0000 50.0000 ylo yhi            
0.0000 50.0000 zlo zhi            
                                                                                    
                                                                                    
# Types have been converted numerically as follows:                                 
# 2 b
# 1 a
                                                                                    
Masses                                                                              
                                                                                    
2	0.5
1	1.0

Atoms                                                                               

	1	1	2	32.50562		4.97026		19.79081	
	2	1	2	32.15560		5.26440		18.76582	
	3	1	2	32.16328		4.18432		18.46082	
	4	1	2	31.34268		3.63469		17.92775	
	5	1	2	31.56654		4.01136		16.89448	
	6	1	2	30.57810		4.43772		17.21205	
	7	1	2	30.21057		3.90372		18.12824	
	8	1	2	29.64773		3.07625		17.62015	
	9	1	1	29.96532		2.19623		18.24012	
	10	1	1	30.55376		2.81971		18.96446	
	11	1	1	31.67338		2.76709		19.02205	
	12	1	1	31.76547		2.89887		20.13281	
	13	1	1	31.96416		3.90602		19.67914	
	14	1	1	33.01304		4.00608		19.29251	
	15	1	1	33.90858		3.52682		19.76995	
	16	1	1	34.90647		3.11978		20.08330	
	17	1	1	35.43988		2.35190		20.70417	
	18	1	1	36.44253		2.61962		20.27676	
	19	1	2	36.23496		3.69090		20.01422	
	20	1	2	37.14427		3.75048		19.35905	
	21	1	2	38.07872		3.63902		19.97062	
	22	1	2	38.53202		4.54142		19.48089	
	23	1	2	37.65954		5.24739		19.48641	
	24	1	2	37.66358		4.72453		18.49331	
	25	1	2	38.71926		5.10497		18.51466	
	26	1	2	39.08676		6.02996		17.99603	
	27	1	2	39.60923		6.54025		17.14380	
	28	1	2	39.31042		7.02074		16.17453	
	29	1	1	40.00918		7.21512		15.31803	
	30	1	1	40.88630		7.80822		15.69024	
	31	1	1	40.20375		8.10264		16.53112	
	32	1	1	39.33868		8.02785		17.24225	
	33	1	1	38.38795		7.69283		17.73573	
	34	1	1	37.95489		6.87836		17.09639	
	35	1	1	38.15669		6.75491		15.99926	
	36	1	1	37.14663		6.28203		15.87348	
	37	1	1	36.59437		6.94384		16.59227	
	38	1	1	35.73684		6.23401		16.44932	
	39	2	2	32.76187		4.82030		20.88480	
	40	2	2	32.32648		5.81193		20.59027	
	41	2	1	31.56217		5.25812		21.19752	
	42	2	1	30.77345		4.75044		20.58122	
	43	2	1	30.22447		3.78594		20.41385	
	44	2	1	29.18016		3.41515		20.23614	
	45	2	1	28.62964		3.26710		19.26936	
	46	2	1	29.02443		4.00387		18.52039	
	47	2	1	29.42899		5.00984		18.81023	
	48	2	1	29.44994		4.49123		19.80535	
	49	2	1	29.08311		5.44504		20.26939	
	50	2	1	29.76265		5.98332		19.55656	
Bonds                                                                               
                                                                                    
	1	1	1	2
	2	1	2	3
	3	1	3	4
	4	1	4	5
	5	1	5	6
	6	1	6	7
	7	1	7	8
	8	1	8	9
	9	1	9	10
	10	1	10	11
	11	1	11	12
	12	1	12	13
	13	1	13	14
	14	1	14	15
	15	1	15	16
	16	1	16	17
	17	1	17	18
	18	1	18	19
	19	1	19	20
	20	1	20	21
	21	1	21	22
	22	1	22	23
	23	1	23	24
	24	1	24	25
	25	1	25	26
	26	1	26	27
	27	1	27	28
	28	1	28	29
	29	1	29	30
	30	1	30	31
	31	1	31	32
	32	1	32	33
	33	1	33	34
	34	1	34	35
	35	1	35	36
	36	1	36	37
	37	1	37	38
	38	1	39	40
	39	1	40	41
	40	1	41	42
	41	1	42	43
	42	1	43	44
	43	1	44	45
	44	1	45	46
	45	1	46	47
	46	1	47	48
	47	1	48	49
	48	1	49	50
	49	1	1	39
