#-----------------------------------------------------------------------------------           
# NANOPOLY - POLYMER NANOCOMPOSITE STRUCTURAL DATA FILE                                        
#-----------------------------------------------------------------------------------           
# FILENAME:  int_structure.in                                                                  
# DATE: 2021-09-01                                                                                
#-----------------------------------------------------------------------------------           
                                                                                               
30 atoms                                                             
29 bonds                                                             
                                                                                               
2 atom types                                      
1 bond types                                            
                                                                                    
0.0000 30.0000 xlo xhi            
0.0000 30.0000 ylo yhi            
0.0000 30.0000 zlo zhi            
                                                                                    
                                                                                    
# Types have been converted numerically as follows:                                 
# 1 mainbead
# 2 subbead
                                                                                    
Masses                                                                              
                                                                                    
1	0.5
2	1.0

Atoms                                                                               

	1	1	1	28.11707		15.33868		11.76140	
	2	1	2	28.57086		16.14421		12.39767	
	3	1	1	29.10420		17.08144		12.70881	
	4	1	2	28.78221		18.14741		12.56855	
	5	1	1	27.88831		18.16576		13.24697	
	6	1	2	27.48230		17.16061		13.53761	
	7	1	1	27.75851		16.09873		13.77374	
	8	1	2	28.65075		15.64591		14.28218	
	9	1	1	28.66773		14.89236		15.11376	
	10	1	2	28.55304		13.99822		15.78234	
	11	1	1	28.45063		14.60097		16.72354	
	12	1	2	29.29165		13.89374		16.95190	
	13	1	1	28.96474		13.34509		17.87481	
	14	1	2	29.94250		12.89923		17.55100	
	15	1	1	0.69045		13.10446		16.73976	
	16	1	2	1.77669		13.18398		17.01069	
	17	1	1	2.11476		14.18848		17.37994	
	18	1	2	1.46685		13.82970		18.22323	
	19	1	1	0.69932		13.07803		18.54808	
	20	1	2	1.02994		12.01592		18.39890	
	21	1	1	29.93501		12.05290		18.64265	
	22	1	2	0.45191		12.14757		19.63436	
	23	1	1	0.73757		11.40437		20.42537	
	24	1	2	0.80512		10.72645		19.53346	
	25	1	1	0.06737		10.11421		18.94991	
	26	1	2	0.14141		10.32680		17.85038	
	27	1	1	0.81200		10.73073		17.04615	
	28	1	2	1.63257		10.48466		17.77124	
	29	1	1	2.61932		10.10101		18.14380	
	30	1	2	2.67429		9.13087		18.70545	
Bonds                                                                               
                                                                                    
	1	1	1	2
	2	1	2	3
	3	1	3	4
	4	1	4	5
	5	1	5	6
	6	1	6	7
	7	1	7	8
	8	1	8	9
	9	1	9	10
	10	1	10	11
	11	1	11	12
	12	1	12	13
	13	1	13	14
	14	1	14	15
	15	1	15	16
	16	1	16	17
	17	1	17	18
	18	1	18	19
	19	1	19	20
	20	1	20	21
	21	1	21	22
	22	1	22	23
	23	1	23	24
	24	1	24	25
	25	1	25	26
	26	1	26	27
	27	1	27	28
	28	1	28	29
	29	1	29	30
