#-----------------------------------------------------------------------------------           
# NANOPOLY - POLYMER NANOCOMPOSITE STRUCTURAL DATA FILE                                        
#-----------------------------------------------------------------------------------           
# FILENAME:  test_structure.in                                                                  
# DATE: 2021-10-02                                                                                
#-----------------------------------------------------------------------------------           
                                                                                               
600 atoms                                                             
590 bonds                                                             
                                                                                               
2 atom types                                      
1 bond types                                            
                                                                                    
0.0000 15.0000 xlo xhi            
0.0000 15.0000 ylo yhi            
0.0000 15.0000 zlo zhi            
                                                                                    
                                                                                    
# Types have been converted numerically as follows:                                 
# 1 a
# 2 b
                                                                                    
Masses                                                                              
                                                                                    
1	1.0
2	0.5

Atoms                                                                               

	1	1	1	6.93887		9.32541		3.47145	
	2	1	1	7.59275		10.23073		3.58326	
	3	1	1	7.81632		10.35983		4.67551	
	4	1	1	7.31060		9.77930		5.49214	
	5	1	1	6.34840		10.35703		5.49843	
	6	1	1	5.74900		10.29428		6.44524	
	7	1	1	6.67279		9.77941		6.82096	
	8	1	1	7.78770		9.82679		6.70106	
	9	1	1	7.28146		10.52514		7.41916	
	10	1	1	6.54277		11.30745		7.09983	
	11	1	1	6.74352		11.91932		6.18061	
	12	1	1	7.58220		12.29295		6.82610	
	13	1	1	7.99104		12.14531		7.86085	
	14	1	1	8.81318		12.11707		8.62435	
	15	1	1	9.69337		11.79187		8.00860	
	16	1	1	9.11849		10.88772		7.67443	
	17	1	1	9.05412		10.73172		6.56485	
	18	1	1	8.90885		10.44403		5.48978	
	19	1	1	9.09654		11.42053		4.96933	
	20	1	1	9.82223		11.48345		4.11547	
	21	1	1	9.91787		11.01575		3.09972	
	22	1	1	9.76976		10.29826		3.94996	
	23	1	1	10.42970		9.65234		3.31206	
	24	1	1	10.99865		9.37750		4.23964	
	25	1	1	11.65670		9.07670		3.38165	
	26	1	1	12.49330		8.39999		3.06259	
	27	1	1	11.95685		9.00104		2.28118	
	28	1	1	12.00713		8.34119		1.37469	
	29	1	1	11.09151		8.10367		1.97874	
	30	1	1	10.51735		9.01545		2.29281	
	31	1	1	10.39442		10.12350		2.16338	
	32	1	1	10.91338		11.11252		2.27368	
	33	1	1	10.08390		11.84407		2.08274	
	34	1	1	9.69532		12.84279		2.41625	
	35	1	1	10.27870		13.10867		3.33745	
	36	1	1	11.25881		13.64003		3.20822	
	37	1	1	11.41956		12.90493		4.04094	
	38	1	1	11.95574		13.76708		4.51932	
	39	1	1	11.31709		14.67427		4.34970	
	40	1	1	10.87237		0.28878		3.52250	
	41	1	1	9.94593		0.91852		3.45342	
	42	1	1	9.95978		1.98118		3.09257	
	43	1	1	9.38569		2.94296		3.02158	
	44	1	1	9.54301		4.03685		2.82586	
	45	1	1	10.25383		3.49936		2.14359	
	46	1	1	9.71210		2.56129		1.84999	
	47	1	1	10.74713		2.61827		1.41975	
	48	1	1	11.02452		2.06009		0.48640	
	49	1	1	11.65411		2.85493		0.00525	
	50	1	1	10.87944		2.63007		14.22489	
	51	1	1	10.06934		3.40126		14.13187	
	52	1	1	9.79538		2.78240		0.02720	
	53	1	1	9.08706		2.05002		14.55650	
	54	1	1	9.21225		1.25791		13.77130	
	55	1	1	9.70449		0.29684		14.07737	
	56	1	1	10.20055		14.31568		13.85178	
	57	1	1	11.30119		14.29367		13.63323	
	58	1	1	11.84825		14.80547		14.46895	
	59	1	1	12.45263		14.89689		0.41024	
	60	1	1	11.95778		14.30670		1.22661	
	61	2	1	2.05357		1.79977		11.07703	
	62	2	1	1.50029		2.09828		12.00677	
	63	2	1	0.65135		1.81032		12.68208	
	64	2	1	1.08334		1.37669		13.62282	
	65	2	1	2.15336		1.69181		13.49863	
	66	2	1	2.75833		2.27773		14.24048	
	67	2	1	2.22089		1.60834		14.96348	
	68	2	1	2.19201		2.39913		0.75938	
	69	2	1	1.10784		2.50383		0.48873	
	70	2	1	0.79385		2.09164		14.49316	
	71	2	1	0.14466		1.52134		0.20938	
	72	2	1	14.17920		0.95976		0.09910	
	73	2	1	14.56896		0.22953		14.34115	
	74	2	1	0.32133		14.40354		14.44752	
	75	2	1	0.86613		0.15066		0.08364	
	76	2	1	0.48126		0.41694		1.10375	
	77	2	1	0.13954		14.42278		1.49684	
	78	2	1	0.15975		14.57739		2.60829	
	79	2	1	0.85789		14.55686		3.48684	
	80	2	1	1.34589		0.09829		2.63340	
	81	2	1	1.21190		14.02218		2.34411	
	82	2	1	1.23073		14.11342		1.22565	
	83	2	1	0.96315		13.37061		0.42798	
	84	2	1	14.89242		13.04132		0.49703	
	85	2	1	14.35122		12.60864		14.61411	
	86	2	1	13.54954		11.85406		14.39605	
	87	2	1	13.33302		11.17456		13.52942	
	88	2	1	12.72677		11.63643		12.70553	
	89	2	1	12.93619		10.62068		12.27651	
	90	2	1	12.40299		9.92340		11.57713	
	91	2	1	12.19817		8.90187		11.99447	
	92	2	1	12.34511		9.41058		12.98405	
	93	2	1	13.17494		8.81935		13.45466	
	94	2	1	13.46673		9.87716		13.69032	
	95	2	1	14.51346		9.50180		13.84226	
	96	2	1	14.76374		10.58921		13.72167	
	97	2	1	0.41910		11.39421		13.29490	
	98	2	1	0.70384		12.26052		12.64064	
	99	2	1	0.19848		13.06625		13.23650	
	100	2	1	14.20267		13.39531		13.63617	
	101	2	1	13.09672		13.47218		13.81111	
	102	2	1	13.73024		14.29604		14.23486	
	103	2	1	13.55186		14.65268		0.28397	
	104	2	1	13.78765		13.68755		0.80605	
	105	2	1	12.87015		13.51818		0.18223	
	106	2	1	12.19507		12.99956		0.91363	
	107	2	1	11.41498		12.26995		0.56900	
	108	2	1	11.50738		11.52025		14.73891	
	109	2	1	11.72680		10.42049		14.69368	
	110	2	1	11.56339		10.77567		13.64164	
	111	2	1	10.77186		10.73800		12.84684	
	112	2	1	10.20792		10.82163		11.88008	
	113	2	1	9.81981		10.59586		10.85147	
	114	2	1	9.22666		11.31062		10.22144	
	115	2	1	9.31881		12.42878		10.19207	
	116	2	1	8.32277		11.95131		9.99312	
	117	2	1	8.16506		12.12269		11.09103	
	118	2	1	8.08999		11.66206		12.11173	
	119	2	1	8.85993		10.93942		12.49203	
	120	2	1	9.03632		12.00681		12.79071	
	121	3	1	2.98517		4.59420		11.04679	
	122	3	1	3.39035		4.42375		12.07947	
	123	3	1	2.77172		5.30055		12.40835	
	124	3	1	2.04810		5.83756		13.07741	
	125	3	1	1.47963		6.33130		13.90970	
	126	3	1	1.63105		7.39396		13.58188	
	127	3	1	1.73691		8.43219		13.16893	
	128	3	1	0.93308		8.99586		13.71279	
	129	3	1	1.84747		9.62465		13.54499	
	130	3	1	2.28737		10.57575		13.14307	
	131	3	1	3.35788		10.30118		13.33869	
	132	3	1	3.03915		10.09418		14.39472	
	133	3	1	3.85171		10.02106		0.16547	
	134	3	1	4.47607		10.27509		14.26809	
	135	3	1	4.87771		10.54974		0.27948	
	136	3	1	4.65229		9.63810		0.89409	
	137	3	1	4.61190		9.64705		2.01567	
	138	3	1	4.65939		10.56490		2.65983	
	139	3	1	4.73914		11.65909		2.42311	
	140	3	1	5.43453		11.56130		1.54760	
	141	3	1	6.35677		11.23371		0.99822	
	142	3	1	6.02781		10.33571		0.41083	
	143	3	1	5.95220		9.35229		14.87528	
	144	3	1	5.76836		8.26279		0.07236	
	145	3	1	6.40552		7.34351		0.16501	
	146	3	1	6.55748		6.27891		0.48624	
	147	3	1	6.42172		5.17471		0.63445	
	148	3	1	6.30457		5.41406		1.72470	
	149	3	1	5.26066		5.64407		1.38263	
	150	3	1	5.12080		6.16189		2.36851	
	151	3	1	4.74316		7.04143		2.95454	
	152	3	1	5.35902		7.90161		3.32932	
	153	3	1	5.89070		6.92400		3.47500	
	154	3	1	6.67939		7.42018		4.10065	
	155	3	1	7.13038		7.80902		5.05199	
	156	3	1	7.31466		7.31976		6.04512	
	157	3	1	7.08801		6.41796		6.67363	
	158	3	1	8.08391		6.11673		6.25280	
	159	3	1	7.36416		5.78516		5.45802	
	160	3	1	6.25015		5.88536		5.55076	
	161	3	1	6.00303		5.53329		6.58740	
	162	3	1	5.20987		4.84275		6.19537	
	163	3	1	4.28533		4.24450		6.41212	
	164	3	1	5.07848		3.46671		6.25211	
	165	3	1	5.93374		3.69044		5.56064	
	166	3	1	6.42558		3.20912		4.67404	
	167	3	1	6.00850		3.85812		3.85888	
	168	3	1	6.17079		4.94223		3.61804	
	169	3	1	5.48447		5.74317		4.00159	
	170	3	1	5.65733		6.49636		4.81551	
	171	3	1	4.69160		6.83870		5.27356	
	172	3	1	3.93103		7.13327		6.04454	
	173	3	1	3.71818		6.04013		5.90529	
	174	3	1	2.91151		6.00092		5.12594	
	175	3	1	3.00440		6.48284		4.11660	
	176	3	1	2.43673		7.40651		4.40682	
	177	3	1	2.98001		8.07262		3.68516	
	178	3	1	3.13995		9.12923		3.34215	
	179	3	1	4.06332		9.76715		3.35121	
	180	3	1	4.17485		10.83390		3.68177	
	181	4	1	5.89172		2.20839		3.77916	
	182	4	1	6.61199		1.63484		3.13737	
	183	4	1	6.88780		0.58205		3.41164	
	184	4	1	6.11756		14.85688		3.03679	
	185	4	1	5.51465		14.97629		3.97588	
	186	4	1	5.58077		1.06763		4.22938	
	187	4	1	5.27829		0.71120		5.24973	
	188	4	1	5.01432		0.36373		6.28377	
	189	4	1	4.38815		14.83989		7.05393	
	190	4	1	3.93879		0.05436		6.04808	
	191	4	1	4.77765		14.41816		5.65922	
	192	4	1	5.64547		13.70835		5.60713	
	193	4	1	5.60302		13.46214		4.51295	
	194	4	1	5.87953		13.63375		3.43882	
	195	4	1	6.71229		12.93363		3.71447	
	196	4	1	5.96552		12.36758		4.33218	
	197	4	1	5.50374		11.52123		4.90673	
	198	4	1	5.24148		10.48196		4.57390	
	199	4	1	5.64370		9.74479		3.82929	
	200	4	1	6.27319		10.64406		3.59538	
	201	4	1	6.67784		10.41843		2.57313	
	202	4	1	7.33416		9.52066		2.42178	
	203	4	1	6.35340		9.14657		2.02452	
	204	4	1	6.18475		8.10393		1.64491	
	205	4	1	7.21205		8.41845		1.32029	
	206	4	1	8.14125		7.80082		1.19877	
	207	4	1	8.89551		8.63132		1.23073	
	208	4	1	8.27044		8.43038		2.14098	
	209	4	1	8.52139		7.42362		2.56889	
	210	4	1	9.39130		7.86251		3.12592	
	211	4	1	9.73729		8.26467		4.11496	
	212	4	1	10.75005		8.38177		3.64565	
	213	4	1	11.38631		8.07887		4.51918	
	214	4	1	12.11005		8.05173		5.37658	
	215	4	1	11.98213		6.94627		5.23079	
	216	4	1	12.09604		5.83173		5.29763	
	217	4	1	11.08351		6.28479		5.46844	
	218	4	1	10.07243		5.79779		5.45470	
	219	4	1	9.06495		5.74470		4.96295	
	220	4	1	8.24536		6.50313		4.85022	
	221	4	1	8.35377		7.60465		4.66434	
	222	4	1	8.69788		7.59188		5.73255	
	223	4	1	9.22539		6.60142		5.75207	
	224	4	1	9.93743		7.40441		6.08050	
	225	4	1	10.34338		7.00013		7.04559	
	226	4	1	10.50586		7.49091		8.04178	
	227	4	1	11.02018		7.93347		8.93579	
	228	4	1	11.89840		8.47420		8.49308	
	229	4	1	12.94361		8.10437		8.31867	
	230	4	1	12.23003		7.41447		7.79476	
	231	4	1	11.52108		7.37220		6.92570	
	232	4	1	10.86640		8.28350		6.90193	
	233	4	1	10.14455		9.13674		7.00476	
	234	4	1	9.40810		8.50525		7.56914	
	235	4	1	8.97109		9.51026		7.81126	
	236	4	1	9.16352		9.36760		8.90773	
	237	4	1	9.91269		10.20298		8.88436	
	238	4	1	10.38844		11.13769		9.28388	
	239	4	1	11.43814		11.46137		9.51415	
	240	4	1	12.23700		10.85023		10.01211	
	241	5	1	3.18167		13.89682		13.87868	
	242	5	1	2.54988		13.11242		13.38350	
	243	5	1	1.58615		13.58102		13.04991	
	244	5	1	2.24120		14.49234		13.04311	
	245	5	1	3.20287		14.67080		12.49265	
	246	5	1	3.87373		13.91945		11.99761	
	247	5	1	4.99587		13.94092		11.99535	
	248	5	1	5.84922		14.65352		11.84163	
	249	5	1	6.79289		0.15777		11.50271	
	250	5	1	6.18043		0.30151		10.57326	
	251	5	1	5.35556		0.61218		11.26805	
	252	5	1	4.99709		1.58337		10.83455	
	253	5	1	4.49423		1.49150		11.83372	
	254	5	1	4.89547		2.50539		11.56787	
	255	5	1	5.07465		3.40650		10.92324	
	256	5	1	4.08766		3.40618		10.38892	
	257	5	1	3.63993		3.25564		9.37082	
	258	5	1	3.18238		2.34261		9.83630	
	259	5	1	3.76551		1.59350		10.43500	
	260	5	1	3.87907		1.17299		9.40063	
	261	5	1	4.36661		0.47853		8.66600	
	262	5	1	4.71315		1.11564		7.80947	
	263	5	1	4.89668		2.21706		7.92280	
	264	5	1	5.39648		1.88464		6.97446	
	265	5	1	4.27599		1.88152		7.03877	
	266	5	1	3.17934		1.70007		7.19397	
	267	5	1	2.44218		0.86341		7.32136	
	268	5	1	1.52784		1.49697		7.47052	
	269	5	1	1.67957		1.69472		8.56483	
	270	5	1	1.75087		0.57836		8.47378	
	271	5	1	1.10817		0.48563		9.38919	
	272	5	1	0.76260		0.70612		10.43399	
	273	5	1	1.73983		0.52442		10.95520	
	274	5	1	2.59673		14.87513		11.27737	
	275	5	1	3.28887		14.74112		10.40409	
	276	5	1	3.71726		13.81215		9.94242	
	277	5	1	3.10799		12.87142		10.00127	
	278	5	1	2.14618		12.54264		9.52537	
	279	5	1	1.95688		11.64710		8.87589	
	280	5	1	2.10782		12.28001		7.96141	
	281	5	1	3.03529		12.75063		8.38329	
	282	5	1	3.39880		13.76387		8.70085	
	283	5	1	2.42401		14.31888		8.73840	
	284	5	1	2.60145		0.10381		9.52073	
	285	5	1	1.85272		14.53846		10.13671	
	286	5	1	1.41234		13.50661		10.16818	
	287	5	1	1.33020		13.85307		11.23254	
	288	5	1	0.52905		13.67424		11.99794	
	289	5	1	0.07359		14.30282		11.18733	
	290	5	1	0.31307		13.38508		10.58729	
	291	5	1	14.40993		13.62363		9.96513	
	292	5	1	13.43404		13.57291		9.41313	
	293	5	1	14.07089		14.20821		8.74197	
	294	5	1	14.87910		14.84667		8.29609	
	295	5	1	14.82991		14.37037		7.28102	
	296	5	1	14.21014		14.02472		6.41151	
	297	5	1	13.37374		14.50467		6.98572	
	298	5	1	12.74642		14.24283		6.09266	
	299	5	1	12.11450		14.90388		6.74331	
	300	5	1	11.27163		0.13642		6.03965	
	301	6	1	6.07317		4.73500		5.16011	
	302	6	1	7.03925		4.42087		5.63725	
	303	6	1	7.71981		3.56479		5.38504	
	304	6	1	8.04991		3.97827		4.39523	
	305	6	1	7.36197		3.24029		3.90354	
	306	6	1	7.74224		2.35954		4.48606	
	307	6	1	8.57227		2.65155		3.78933	
	308	6	1	8.16546		2.29939		2.80438	
	309	6	1	8.13031		1.19366		2.99353	
	310	6	1	8.83045		1.29767		3.86453	
	311	6	1	8.96048		0.19889		4.05272	
	312	6	1	8.87648		14.07971		4.05818	
	313	6	1	7.99184		14.17339		3.37386	
	314	6	1	8.00302		14.13973		2.25208	
	315	6	1	7.47082		13.85587		1.30559	
	316	6	1	7.23000		14.34887		0.32651	
	317	6	1	7.57389		0.39002		0.56604	
	318	6	1	8.46827		14.72272		0.44584	
	319	6	1	9.14045		0.56681		0.13709	
	320	6	1	9.49445		0.70704		1.19287	
	321	6	1	9.36778		1.67819		0.64473	
	322	6	1	8.43728		2.02968		1.16461	
	323	6	1	8.03916		1.13536		1.71356	
	324	6	1	7.13936		1.52890		1.17031	
	325	6	1	6.56648		0.93500		1.93106	
	326	6	1	7.25317		0.15515		2.35525	
	327	6	1	6.65133		14.76021		1.49418	
	328	6	1	5.57436		0.03093		1.33140	
	329	6	1	5.80668		0.27001		0.25971	
	330	6	1	4.94097		14.73290		14.78886	
	331	6	1	4.64175		0.78304		14.52942	
	332	6	1	3.98532		1.65025		14.80634	
	333	6	1	4.09358		2.46502		0.57059	
	334	6	1	4.86972		3.03343		1.14867	
	335	6	1	5.60734		3.08912		0.30459	
	336	6	1	5.73943		2.11684		0.84945	
	337	6	1	5.36359		1.16643		1.31325	
	338	6	1	5.36717		1.24446		2.43287	
	339	6	1	4.56648		0.48195		2.62549	
	340	6	1	4.47551		14.42906		3.00337	
	341	6	1	3.49742		14.75189		2.55755	
	342	6	1	2.67691		0.36846		3.01169	
	343	6	1	3.39365		1.15906		2.66401	
	344	6	1	2.73365		1.46110		3.52005	
	345	6	1	1.77575		2.02539		3.67388	
	346	6	1	1.83467		3.13037		3.48630	
	347	6	1	2.78813		3.72229		3.47245	
	348	6	1	3.09196		3.44831		4.51756	
	349	6	1	3.89248		3.97232		5.10428	
	350	6	1	3.29516		4.75898		5.63721	
	351	6	1	3.49922		4.99687		4.55952	
	352	6	1	2.41003		4.88107		4.80427	
	353	6	1	1.69695		4.23664		5.38381	
	354	6	1	1.78238		3.16323		5.70027	
	355	6	1	2.77145		3.30683		6.21091	
	356	6	1	2.33415		2.31027		6.48528	
	357	6	1	2.50263		2.51933		7.57503	
	358	6	1	1.85402		3.42203		7.41989	
	359	6	1	1.24549		2.55588		7.79287	
	360	6	1	0.36666		3.23589		7.63511	
	361	7	1	1.84614		2.12132		1.94340	
	362	7	1	0.83531		1.72958		1.65287	
	363	7	1	0.16209		2.05792		2.48870	
	364	7	1	0.45168		3.13738		2.38603	
	365	7	1	0.11202		4.17721		2.13497	
	366	7	1	14.98242		5.04474		2.83514	
	367	7	1	0.52385		6.01868		2.70119	
	368	7	1	0.76294		5.28064		1.89015	
	369	7	1	1.24824		4.65880		2.68855	
	370	7	1	2.13890		4.65278		2.00567	
	371	7	1	1.73782		4.09034		1.12111	
	372	7	1	2.02190		4.30212		0.05618	
	373	7	1	2.96608		4.51930		0.62275	
	374	7	1	3.45660		4.30476		1.60917	
	375	7	1	4.51346		4.20229		1.97276	
	376	7	1	4.44492		4.70738		0.97284	
	377	7	1	4.60353		4.04366		0.08179	
	378	7	1	5.26871		4.94671		0.12291	
	379	7	1	5.52292		5.93919		14.66465	
	380	7	1	5.48338		6.40817		13.64576	
	381	7	1	4.84421		5.84395		12.91585	
	382	7	1	5.64762		6.51886		12.51752	
	383	7	1	6.28960		7.09755		13.23350	
	384	7	1	6.94075		7.63041		12.49073	
	385	7	1	7.72924		7.85372		13.25757	
	386	7	1	8.26977		8.82124		13.43470	
	387	7	1	7.92360		9.71156		12.84551	
	388	7	1	7.12921		10.43324		12.51720	
	389	7	1	7.47648		10.03776		11.52592	
	390	7	1	6.60402		9.82021		10.85425	
	391	7	1	7.45955		10.25844		10.27488	
	392	7	1	6.96868		11.21942		10.58343	
	393	7	1	6.10563		11.74799		11.06863	
	394	7	1	6.53960		12.78114		11.00617	
	395	7	1	7.27853		12.39126		10.25676	
	396	7	1	6.60541		13.13186		9.74876	
	397	7	1	6.83724		14.20737		9.52696	
	398	7	1	6.39924		13.98365		10.53580	
	399	7	1	5.67695		14.48284		9.83669	
	400	7	1	5.35392		13.49755		10.26623	
	401	7	1	4.62338		13.05387		10.99362	
	402	7	1	4.23948		12.31605		11.74721	
	403	7	1	4.20328		11.29185		12.20476	
	404	7	1	3.51218		11.55588		13.04875	
	405	7	1	3.77079		11.94147		14.07055	
	406	7	1	3.86067		11.47714		0.08838	
	407	7	1	2.87668		11.38025		14.55731	
	408	7	1	2.38164		11.79263		13.63833	
	409	7	1	1.35027		11.50303		13.97308	
	410	7	1	1.04465		12.03285		14.91411	
	411	7	1	1.59200		12.02488		0.89390	
	412	7	1	1.64478		12.88831		1.60899	
	413	7	1	1.82581		12.87173		2.71651	
	414	7	1	2.82412		13.04811		3.19808	
	415	7	1	2.79638		13.83646		3.99644	
	416	7	1	3.35518		13.20456		4.73677	
	417	7	1	3.65306		14.28626		4.76590	
	418	7	1	4.06572		0.32761		4.69565	
	419	7	1	3.94106		0.89323		3.73430	
	420	7	1	4.49260		1.47794		4.51761	
	421	8	1	5.05934		12.06207		3.58280	
	422	8	1	4.51406		12.46559		4.47694	
	423	8	1	3.59780		12.45573		3.82885	
	424	8	1	3.98512		13.35463		3.27966	
	425	8	1	4.48773		13.33348		2.27638	
	426	8	1	5.33387		13.75248		1.66963	
	427	8	1	6.23135		13.12462		1.91452	
	428	8	1	6.43959		12.12081		2.37129	
	429	8	1	7.19739		11.77112		3.12170	
	430	8	1	7.99221		12.12693		2.41366	
	431	8	1	7.52688		11.45492		1.64456	
	432	8	1	8.64670		11.48981		1.71121	
	433	8	1	8.71174		10.96569		0.72090	
	434	8	1	9.27271		11.87552		0.37856	
	435	8	1	10.23603		11.56569		14.89312	
	436	8	1	10.58908		11.50651		0.95684	
	437	8	1	11.14081		10.54627		0.77473	
	438	8	1	10.63872		9.58979		1.07920	
	439	8	1	10.06184		9.10856		0.24537	
	440	8	1	11.12107		9.12367		14.87464	
	441	8	1	10.72428		8.51112		14.02200	
	442	8	1	11.20661		9.23097		13.30868	
	443	8	1	11.74334		8.24920		13.39642	
	444	8	1	11.91680		7.51024		14.22317	
	445	8	1	11.07753		7.27284		13.51683	
	446	8	1	11.37233		6.24927		13.16320	
	447	8	1	11.79873		5.26241		13.48560	
	448	8	1	10.82763		5.43308		14.02176	
	449	8	1	10.81947		5.46459		0.14363	
	450	8	1	10.91160		6.33552		0.84551	
	451	8	1	9.83010		6.03978		0.89594	
	452	8	1	8.96229		6.72461		1.08976	
	453	8	1	7.90781		6.34091		1.06789	
	454	8	1	7.98871		5.92547		0.02842	
	455	8	1	8.96950		5.52613		14.65664	
	456	8	1	9.35653		4.53413		14.30196	
	457	8	1	9.08599		4.09428		13.30548	
	458	8	1	8.63392		3.07310		13.19376	
	459	8	1	9.28954		2.78421		12.32985	
	460	8	1	10.29067		2.99950		11.87046	
	461	8	1	10.23080		3.25185		12.96242	
	462	8	1	10.64093		4.29239		12.86899	
	463	8	1	10.37975		4.91420		11.97190	
	464	8	1	11.45568		5.15106		11.75760	
	465	8	1	12.48038		5.60871		11.77133	
	466	8	1	13.00210		6.22885		12.54778	
	467	8	1	13.99657		6.73176		12.41454	
	468	8	1	14.61604		6.11213		11.71314	
	469	8	1	14.34039		5.42619		10.86865	
	470	8	1	13.44439		4.92633		11.32357	
	471	8	1	12.91683		3.94796		11.47893	
	472	8	1	12.10207		3.19432		11.31213	
	473	8	1	12.31093		2.77829		12.33337	
	474	8	1	13.03034		2.73764		13.19386	
	475	8	1	12.88046		2.05178		14.06952	
	476	8	1	12.81544		1.48094		0.03366	
	477	8	1	13.64650		1.86748		0.68140	
	478	8	1	14.32194		2.76332		0.71137	
	479	8	1	14.30392		2.60305		1.82206	
	480	8	1	13.81483		3.51647		1.39065	
	481	9	1	9.39871		4.16667		9.64928	
	482	9	1	9.94161		4.86408		10.34104	
	483	9	1	8.83212		4.73988		10.45613	
	484	9	1	8.71108		5.77928		10.86189	
	485	9	1	8.84741		6.06011		11.93994	
	486	9	1	9.52135		5.94826		12.83042	
	487	9	1	9.72065		6.24046		13.89557	
	488	9	1	10.01311		6.60350		14.91650	
	489	9	1	10.43087		7.61734		14.67720	
	490	9	1	9.46451		7.84599		0.20019	
	491	9	1	8.55288		8.36691		14.80370	
	492	9	1	7.78053		9.01919		0.29120	
	493	9	1	7.47349		9.55784		1.22674	
	494	9	1	7.61303		10.17997		0.30310	
	495	9	1	7.24596		10.43505		14.27361	
	496	9	1	6.57050		10.90759		13.51197	
	497	9	1	6.81510		11.47959		14.44612	
	498	9	1	7.66111		12.20143		14.29493	
	499	9	1	8.03269		12.53847		13.29095	
	500	9	1	8.59363		13.43590		13.66461	
	501	9	1	9.46641		12.97452		14.19849	
	502	9	1	9.05857		11.94317		14.02635	
	503	9	1	9.09990		10.84937		13.77827	
	504	9	1	9.26389		10.00067		14.49414	
	505	9	1	10.29225		10.14091		14.06698	
	506	9	1	9.79338		9.22426		13.65401	
	507	9	1	9.51105		8.14547		13.52699	
	508	9	1	9.64669		8.36946		12.43562	
	509	9	1	10.00715		7.37552		12.05906	
	510	9	1	10.42756		6.59447		11.37141	
	511	9	1	11.24442		7.33244		11.59001	
	512	9	1	11.72343		8.26491		11.18914	
	513	9	1	12.54747		8.92630		10.81077	
	514	9	1	13.50778		8.42461		11.10363	
	515	9	1	13.84037		9.39875		11.55093	
	516	9	1	13.41525		8.66862		12.28973	
	517	9	1	13.10078		7.59141		12.26997	
	518	9	1	12.59675		7.50937		11.27053	
	519	9	1	13.09658		6.61852		10.80555	
	520	9	1	12.46368		5.82819		10.32132	
	521	9	1	11.40264		5.46246		10.31246	
	522	9	1	11.78927		4.42390		10.49011	
	523	9	1	12.63614		3.72698		10.25186	
	524	9	1	13.52469		3.16826		10.64929	
	525	9	1	14.44365		2.52413		10.63318	
	526	9	1	14.95069		3.47789		10.93799	
	527	9	1	0.92766		2.95110		11.10432	
	528	9	1	1.86090		3.48004		11.43437	
	529	9	1	1.41339		3.47564		12.46362	
	530	9	1	0.61732		4.25808		12.58070	
	531	9	1	0.83902		3.89017		13.61758	
	532	9	1	1.57489		3.04367		13.57787	
	533	9	1	2.27186		3.78239		14.05555	
	534	9	1	2.41613		4.73804		13.48497	
	535	9	1	2.98336		5.24453		14.31041	
	536	9	1	4.01818		5.21154		13.87715	
	537	9	1	4.53185		4.74600		12.99450	
	538	9	1	4.84062		4.12118		13.87422	
	539	9	1	3.90499		3.50154		13.85689	
	540	9	1	3.39821		3.94199		14.75623	
	541	10	1	4.05611		5.84649		14.99063	
	542	10	1	4.53392		6.84916		14.82940	
	543	10	1	4.01390		7.65849		14.25127	
	544	10	1	4.77391		7.65775		13.42542	
	545	10	1	5.33268		8.43549		12.84015	
	546	10	1	4.85735		7.71435		12.12344	
	547	10	1	4.12674		8.49431		11.78063	
	548	10	1	4.67002		9.47265		11.69489	
	549	10	1	4.56008		9.67501		10.59643	
	550	10	1	3.76372		8.88907		10.68445	
	551	10	1	3.62085		9.49194		9.74862	
	552	10	1	2.65401		8.94779		9.91818	
	553	10	1	1.59381		8.67463		9.67118	
	554	10	1	1.17220		8.28703		8.70596	
	555	10	1	0.08714		8.52383		8.86789	
	556	10	1	14.71455		9.53738		9.17372	
	557	10	1	14.72288		10.56754		9.61910	
	558	10	1	0.11056		11.60347		9.42884	
	559	10	1	14.16024		11.98918		8.97302	
	560	10	1	13.32124		12.18856		9.69133	
	561	10	1	13.79077		12.22039		10.71024	
	562	10	1	13.00556		11.99634		11.48024	
	563	10	1	12.46213		12.54280		10.66432	
	564	10	1	11.49000		11.99324		10.77655	
	565	10	1	11.12912		10.96549		10.50607	
	566	10	1	11.26525		10.07501		11.17551	
	567	10	1	11.54180		10.76804		12.01389	
	568	10	1	11.24743		11.85089		11.99315	
	569	10	1	10.94304		12.42367		12.90907	
	570	10	1	9.90569		12.83198		12.77933	
	571	10	1	9.38308		13.80233		12.56731	
	572	10	1	10.23869		13.49725		11.90815	
	573	10	1	11.11747		13.92739		12.45804	
	574	10	1	11.22095		14.94960		12.00634	
	575	10	1	10.29688		0.58386		12.06526	
	576	10	1	10.52869		1.68152		12.09781	
	577	10	1	11.31993		1.48515		11.32644	
	578	10	1	11.42960		0.49396		10.81150	
	579	10	1	12.32849		0.24127		10.18876	
	580	10	1	12.11953		14.24994		9.70580	
	581	10	1	11.22808		13.69776		9.30573	
	582	10	1	10.44784		13.95579		10.07012	
	583	10	1	10.79808		0.02005		10.00427	
	584	10	1	10.04532		14.76489		10.79667	
	585	10	1	9.29925		14.57334		11.61296	
	586	10	1	8.47820		0.30024		11.37391	
	587	10	1	8.11135		1.14903		12.01001	
	588	10	1	7.76959		1.85859		12.80962	
	589	10	1	6.79498		1.81889		13.36478	
	590	10	1	5.82066		1.62613		12.84210	
	591	10	1	5.55065		2.56136		13.40075	
	592	10	1	6.57335		3.02304		13.37645	
	593	10	1	6.43095		3.17307		14.47956	
	594	10	1	6.50568		4.12162		13.88432	
	595	10	1	6.12603		4.32781		12.84846	
	596	10	1	6.70228		5.26493		12.62623	
	597	10	1	7.42186		4.40640		12.69541	
	598	10	1	8.47821		4.52939		12.33675	
	599	10	1	8.15710		3.92377		11.44806	
	600	10	1	7.09104		3.79841		11.77583	
Bonds                                                                               
                                                                                    
	1	1	1	2
	2	1	2	3
	3	1	3	4
	4	1	4	5
	5	1	5	6
	6	1	6	7
	7	1	7	8
	8	1	8	9
	9	1	9	10
	10	1	10	11
	11	1	11	12
	12	1	12	13
	13	1	13	14
	14	1	14	15
	15	1	15	16
	16	1	16	17
	17	1	17	18
	18	1	18	19
	19	1	19	20
	20	1	20	21
	21	1	21	22
	22	1	22	23
	23	1	23	24
	24	1	24	25
	25	1	25	26
	26	1	26	27
	27	1	27	28
	28	1	28	29
	29	1	29	30
	30	1	30	31
	31	1	31	32
	32	1	32	33
	33	1	33	34
	34	1	34	35
	35	1	35	36
	36	1	36	37
	37	1	37	38
	38	1	38	39
	39	1	39	40
	40	1	40	41
	41	1	41	42
	42	1	42	43
	43	1	43	44
	44	1	44	45
	45	1	45	46
	46	1	46	47
	47	1	47	48
	48	1	48	49
	49	1	49	50
	50	1	50	51
	51	1	51	52
	52	1	52	53
	53	1	53	54
	54	1	54	55
	55	1	55	56
	56	1	56	57
	57	1	57	58
	58	1	58	59
	59	1	59	60
	60	1	61	62
	61	1	62	63
	62	1	63	64
	63	1	64	65
	64	1	65	66
	65	1	66	67
	66	1	67	68
	67	1	68	69
	68	1	69	70
	69	1	70	71
	70	1	71	72
	71	1	72	73
	72	1	73	74
	73	1	74	75
	74	1	75	76
	75	1	76	77
	76	1	77	78
	77	1	78	79
	78	1	79	80
	79	1	80	81
	80	1	81	82
	81	1	82	83
	82	1	83	84
	83	1	84	85
	84	1	85	86
	85	1	86	87
	86	1	87	88
	87	1	88	89
	88	1	89	90
	89	1	90	91
	90	1	91	92
	91	1	92	93
	92	1	93	94
	93	1	94	95
	94	1	95	96
	95	1	96	97
	96	1	97	98
	97	1	98	99
	98	1	99	100
	99	1	100	101
	100	1	101	102
	101	1	102	103
	102	1	103	104
	103	1	104	105
	104	1	105	106
	105	1	106	107
	106	1	107	108
	107	1	108	109
	108	1	109	110
	109	1	110	111
	110	1	111	112
	111	1	112	113
	112	1	113	114
	113	1	114	115
	114	1	115	116
	115	1	116	117
	116	1	117	118
	117	1	118	119
	118	1	119	120
	119	1	121	122
	120	1	122	123
	121	1	123	124
	122	1	124	125
	123	1	125	126
	124	1	126	127
	125	1	127	128
	126	1	128	129
	127	1	129	130
	128	1	130	131
	129	1	131	132
	130	1	132	133
	131	1	133	134
	132	1	134	135
	133	1	135	136
	134	1	136	137
	135	1	137	138
	136	1	138	139
	137	1	139	140
	138	1	140	141
	139	1	141	142
	140	1	142	143
	141	1	143	144
	142	1	144	145
	143	1	145	146
	144	1	146	147
	145	1	147	148
	146	1	148	149
	147	1	149	150
	148	1	150	151
	149	1	151	152
	150	1	152	153
	151	1	153	154
	152	1	154	155
	153	1	155	156
	154	1	156	157
	155	1	157	158
	156	1	158	159
	157	1	159	160
	158	1	160	161
	159	1	161	162
	160	1	162	163
	161	1	163	164
	162	1	164	165
	163	1	165	166
	164	1	166	167
	165	1	167	168
	166	1	168	169
	167	1	169	170
	168	1	170	171
	169	1	171	172
	170	1	172	173
	171	1	173	174
	172	1	174	175
	173	1	175	176
	174	1	176	177
	175	1	177	178
	176	1	178	179
	177	1	179	180
	178	1	181	182
	179	1	182	183
	180	1	183	184
	181	1	184	185
	182	1	185	186
	183	1	186	187
	184	1	187	188
	185	1	188	189
	186	1	189	190
	187	1	190	191
	188	1	191	192
	189	1	192	193
	190	1	193	194
	191	1	194	195
	192	1	195	196
	193	1	196	197
	194	1	197	198
	195	1	198	199
	196	1	199	200
	197	1	200	201
	198	1	201	202
	199	1	202	203
	200	1	203	204
	201	1	204	205
	202	1	205	206
	203	1	206	207
	204	1	207	208
	205	1	208	209
	206	1	209	210
	207	1	210	211
	208	1	211	212
	209	1	212	213
	210	1	213	214
	211	1	214	215
	212	1	215	216
	213	1	216	217
	214	1	217	218
	215	1	218	219
	216	1	219	220
	217	1	220	221
	218	1	221	222
	219	1	222	223
	220	1	223	224
	221	1	224	225
	222	1	225	226
	223	1	226	227
	224	1	227	228
	225	1	228	229
	226	1	229	230
	227	1	230	231
	228	1	231	232
	229	1	232	233
	230	1	233	234
	231	1	234	235
	232	1	235	236
	233	1	236	237
	234	1	237	238
	235	1	238	239
	236	1	239	240
	237	1	241	242
	238	1	242	243
	239	1	243	244
	240	1	244	245
	241	1	245	246
	242	1	246	247
	243	1	247	248
	244	1	248	249
	245	1	249	250
	246	1	250	251
	247	1	251	252
	248	1	252	253
	249	1	253	254
	250	1	254	255
	251	1	255	256
	252	1	256	257
	253	1	257	258
	254	1	258	259
	255	1	259	260
	256	1	260	261
	257	1	261	262
	258	1	262	263
	259	1	263	264
	260	1	264	265
	261	1	265	266
	262	1	266	267
	263	1	267	268
	264	1	268	269
	265	1	269	270
	266	1	270	271
	267	1	271	272
	268	1	272	273
	269	1	273	274
	270	1	274	275
	271	1	275	276
	272	1	276	277
	273	1	277	278
	274	1	278	279
	275	1	279	280
	276	1	280	281
	277	1	281	282
	278	1	282	283
	279	1	283	284
	280	1	284	285
	281	1	285	286
	282	1	286	287
	283	1	287	288
	284	1	288	289
	285	1	289	290
	286	1	290	291
	287	1	291	292
	288	1	292	293
	289	1	293	294
	290	1	294	295
	291	1	295	296
	292	1	296	297
	293	1	297	298
	294	1	298	299
	295	1	299	300
	296	1	301	302
	297	1	302	303
	298	1	303	304
	299	1	304	305
	300	1	305	306
	301	1	306	307
	302	1	307	308
	303	1	308	309
	304	1	309	310
	305	1	310	311
	306	1	311	312
	307	1	312	313
	308	1	313	314
	309	1	314	315
	310	1	315	316
	311	1	316	317
	312	1	317	318
	313	1	318	319
	314	1	319	320
	315	1	320	321
	316	1	321	322
	317	1	322	323
	318	1	323	324
	319	1	324	325
	320	1	325	326
	321	1	326	327
	322	1	327	328
	323	1	328	329
	324	1	329	330
	325	1	330	331
	326	1	331	332
	327	1	332	333
	328	1	333	334
	329	1	334	335
	330	1	335	336
	331	1	336	337
	332	1	337	338
	333	1	338	339
	334	1	339	340
	335	1	340	341
	336	1	341	342
	337	1	342	343
	338	1	343	344
	339	1	344	345
	340	1	345	346
	341	1	346	347
	342	1	347	348
	343	1	348	349
	344	1	349	350
	345	1	350	351
	346	1	351	352
	347	1	352	353
	348	1	353	354
	349	1	354	355
	350	1	355	356
	351	1	356	357
	352	1	357	358
	353	1	358	359
	354	1	359	360
	355	1	361	362
	356	1	362	363
	357	1	363	364
	358	1	364	365
	359	1	365	366
	360	1	366	367
	361	1	367	368
	362	1	368	369
	363	1	369	370
	364	1	370	371
	365	1	371	372
	366	1	372	373
	367	1	373	374
	368	1	374	375
	369	1	375	376
	370	1	376	377
	371	1	377	378
	372	1	378	379
	373	1	379	380
	374	1	380	381
	375	1	381	382
	376	1	382	383
	377	1	383	384
	378	1	384	385
	379	1	385	386
	380	1	386	387
	381	1	387	388
	382	1	388	389
	383	1	389	390
	384	1	390	391
	385	1	391	392
	386	1	392	393
	387	1	393	394
	388	1	394	395
	389	1	395	396
	390	1	396	397
	391	1	397	398
	392	1	398	399
	393	1	399	400
	394	1	400	401
	395	1	401	402
	396	1	402	403
	397	1	403	404
	398	1	404	405
	399	1	405	406
	400	1	406	407
	401	1	407	408
	402	1	408	409
	403	1	409	410
	404	1	410	411
	405	1	411	412
	406	1	412	413
	407	1	413	414