#-----------------------------------------------------------------------------------           
# NANOPOLY - POLYMER NANOCOMPOSITE STRUCTURAL DATA FILE                                        
#-----------------------------------------------------------------------------------           
# FILENAME:  test_structure2.in                                                                  
# DATE: 2021-09-25                                                                                
#-----------------------------------------------------------------------------------           
                                                                                               
800 atoms                                                             
799 bonds                                                             
                                                                                               
2 atom types                                      
1 bond types                                            
                                                                                    
0.0000 10.0000 xlo xhi            
0.0000 10.0000 ylo yhi            
0.0000 10.0000 zlo zhi            
                                                                                    
                                                                                    
# Types have been converted numerically as follows:                                 
# 1 a
# 2 b
                                                                                    
Masses                                                                              
                                                                                    
1	1.0
2	0.5

Atoms                                                                               

	1	1	1	7.59568		9.09962		1.48142	
	2	1	1	8.47891		8.55881		1.91394	
	3	1	1	8.32730		8.27933		0.83758	
	4	1	1	7.63730		8.60876		0.01599	
	5	1	1	8.73229		8.81004		9.87414	
	6	1	1	8.80038		7.75059		9.51003	
	7	1	1	9.47599		8.23231		0.26577	
	8	1	1	9.68510		7.14796		0.46607	
	9	1	1	0.61697		7.70723		0.74624	
	10	1	1	0.03561		8.66707		0.76551	
	11	1	1	9.66294		9.00009		9.76059	
	12	1	1	9.14505		8.09413		0.17370	
	13	1	1	0.06925		7.45738		0.17992	
	14	1	1	9.76928		8.53500		0.08821	
	15	1	1	9.05210		7.77928		9.67084	
	16	1	1	8.56690		7.87155		8.66302	
	17	1	1	8.26671		8.01397		9.73505	
	18	1	1	8.58257		8.66822		8.87957	
	19	1	1	9.34284		8.98979		9.63998	
	20	1	1	9.36024		9.67749		0.52678	
	21	1	1	9.13092		8.58446		0.41574	
	22	1	1	9.92259		9.11845		1.00544	
	23	1	1	9.27745		0.03636		0.97566	
	24	1	1	9.42190		9.96499		2.08638	
	25	1	1	8.88244		0.93663		1.92969	
	26	1	1	9.02878		1.97358		2.33337	
	27	1	1	0.08894		2.00090		1.96600	
	28	1	1	0.74510		1.15182		1.63710	
	29	1	1	0.27137		2.13691		1.38252	
	30	1	1	0.55696		2.29345		0.30847	
	31	1	1	0.70221		3.12217		1.05129	
	32	1	1	1.23714		2.16298		0.82008	
	33	1	1	1.86927		2.00909		1.73462	
	34	1	1	1.31515		1.20966		1.17469	
	35	1	1	0.76656		0.23424		1.25975	
	36	1	1	1.53833		1.02638		1.45088	
	37	1	1	0.45525		1.29322		1.32683	
	38	1	1	9.68905		2.07549		1.08061	
	39	1	1	0.27356		2.78870		0.44082	
	40	1	1	0.22460		2.40152		1.49312	
	41	1	1	0.50108		1.53571		0.83465	
	42	1	1	9.51512		1.10886		0.51012	
	43	1	1	8.44018		0.88413		0.27849	
	44	1	1	7.65826		0.92576		1.08255	
	45	1	1	8.42816		0.34400		0.50944	
	46	1	1	7.83986		9.92661		9.64959	
	47	1	1	8.70743		0.63825		9.62651	
	48	1	1	8.68305		1.74788		9.79317	
	49	1	1	9.79437		1.89498		9.84783	
	50	1	1	0.37376		1.16824		0.47697	
	51	1	1	0.96786		0.41740		9.89137	
	52	1	1	0.89277		9.75424		8.98903	
	53	1	1	9.77211		9.81315		8.97165	
	54	1	1	0.78006		9.33438		8.85144	
	55	1	1	0.51738		8.24494		8.91287	
	56	1	1	1.44649		8.00693		9.49575	
	57	1	1	1.01649		8.96209		9.09276	
	58	1	1	0.30772		9.83202		9.07028	
	59	1	1	0.17337		0.68692		9.78495	
	60	1	1	0.01591		0.12572		0.74407	
	61	1	1	9.76853		9.09456		1.11170	
	62	1	1	0.17153		0.13816		1.02157	
	63	1	1	0.88868		9.72328		0.26445	
	64	1	1	1.46365		9.84458		1.22066	
	65	1	1	1.74877		8.83362		1.61602	
	66	1	1	2.34308		8.53148		0.71316	
	67	1	1	2.05064		8.81738		1.75833	
	68	1	1	2.55519		8.89168		2.75811	
	69	1	1	3.32925		8.73548		1.96056	
	70	1	1	2.29176		8.89322		2.35852	
	71	1	1	2.25915		8.52370		1.29926	
	72	1	1	3.33059		8.60488		1.62341	
	73	1	1	2.27510		8.98625		1.63511	
	74	1	1	1.40588		8.95033		2.34420	
	75	1	1	0.56210		9.05569		1.61168	
	76	1	1	0.64928		9.40366		0.54821	
	77	1	1	0.30962		0.35552		1.03632	
	78	1	1	0.95647		0.94932		0.33729	
	79	1	1	1.52769		0.76759		9.38844	
	80	1	1	1.41620		1.88111		9.30307	
	81	1	1	2.38425		2.21752		8.84550	
	82	1	1	2.99531		2.49614		7.94627	
	83	1	1	2.86326		2.14831		9.00515	
	84	1	1	2.10329		2.72690		9.59449	
	85	1	1	0.98263		2.78132		9.62286	
	86	1	1	0.61178		2.00520		8.90192	
	87	1	1	1.33474		2.85601		8.78749	
	88	1	1	1.27467		3.43566		9.74668	
	89	1	1	2.30258		3.06179		9.99825	
	90	1	1	1.78847		2.20658		0.51202	
	91	1	1	2.43634		2.00242		9.61859	
	92	1	1	2.99377		1.03097		9.69065	
	93	1	1	3.90916		1.03266		0.34003	
	94	1	1	3.18510		1.84240		0.62235	
	95	1	1	2.36154		2.58225		0.80679	
	96	1	1	1.69817		3.37667		0.37263	
	97	1	1	0.72082		3.28722		9.82818	
	98	1	1	0.34405		2.23348		9.74263	
	99	1	1	0.85322		1.35238		0.21597	
	100	1	1	9.98061		0.98853		9.61115	
	101	1	1	0.34350		0.93201		8.55060	
	102	1	1	9.87914		0.78757		9.56211	
	103	1	1	0.66902		1.58428		9.59337	
	104	1	1	0.64064		0.60909		0.14820	
	105	1	1	1.22757		1.13576		0.94682	
	106	1	1	1.83476		0.20388		0.79657	
	107	1	1	1.89579		0.36467		9.68748	
	108	1	1	2.85044		0.32792		9.09846	
	109	1	1	2.39064		1.35052		9.04809	
	110	1	1	1.40324		1.50793		8.53828	
	111	1	1	0.59129		1.66319		9.29740	
	112	1	1	0.44292		2.76204		9.47107	
	113	1	1	9.58031		2.89427		8.76533	
	114	1	1	9.05017		3.35626		7.89059	
	115	1	1	0.14321		3.54986		8.05617	
	116	1	1	0.85512		2.70215		8.24119	
	117	1	1	9.92531		2.94662		8.82027	
	118	1	1	0.23624		2.11942		9.51216	
	119	1	1	1.17847		2.41983		0.04281	
	120	1	1	1.93063		1.59342		0.14749	
	121	1	1	1.74312		0.53493		0.47013	
	122	1	1	0.86729		9.85267		0.63472	
	123	1	1	1.03362		9.34691		9.64669	
	124	1	1	1.11626		0.44460		9.86553	
	125	1	1	1.85490		9.60862		9.74228	
	126	1	1	2.49423		8.79004		0.16751	
	127	1	1	1.63967		8.14722		0.50834	
	128	1	1	1.94154		8.67566		1.45135	
	129	1	1	1.13839		9.26623		1.96692	
	130	1	1	1.08759		0.09081		1.20722	
	131	1	1	0.83324		0.15482		0.11596	
	132	1	1	0.45964		0.98361		0.77412	
	133	1	1	1.39580		1.60214		0.80031	
	134	1	1	0.59763		2.16108		0.24339	
	135	1	1	0.84077		2.99931		0.94902	
	136	1	1	1.14460		2.42102		0.03638	
	137	1	1	1.74988		1.59525		0.49614	
	138	1	1	0.77378		1.08897		0.72095	
	139	1	1	9.80709		0.72046		0.28578	
	140	1	1	0.63911		9.96941		0.34337	
	141	1	1	0.52472		0.15656		9.24267	
	142	1	1	1.32631		0.49875		8.53556	
	143	1	1	0.97384		1.56430		8.53993	
	144	1	1	0.33016		2.32653		9.05406	
	145	1	1	0.08148		3.31804		9.51743	
	146	1	1	0.20081		2.47031		8.79164	
	147	1	1	0.27336		2.10555		9.85058	
	148	1	1	1.03128		1.31791		0.10521	
	149	1	1	0.33327		1.62917		9.28329	
	150	1	1	9.22641		1.52391		9.43637	
	151	1	1	8.34908		0.88257		9.15599	
	152	1	1	8.02397		1.22157		8.13667	
	153	1	1	8.29071		0.43168		8.88805	
	154	1	1	9.35608		0.33802		8.54765	
	155	1	1	0.23473		1.02816		8.44125	
	156	1	1	0.02603		0.71676		9.49914	
	157	1	1	0.36510		0.11382		0.38296	
	158	1	1	9.39468		0.43276		0.84794	
	159	1	1	8.35565		0.28752		0.44923	
	160	1	1	8.29183		9.25461		0.88359	
	161	1	1	8.54279		8.17019		0.73972	
	162	1	1	8.99356		7.72332		1.66533	
	163	1	1	8.61762		7.12466		0.79360	
	164	1	1	8.77809		8.20760		0.54637	
	165	1	1	9.33046		9.08414		0.11484	
	166	1	1	9.85275		8.43805		9.36023	
	167	1	1	0.75096		9.03841		9.66425	
	168	1	1	9.68270		8.76470		9.87297	
	169	1	1	0.12147		9.60591		0.47255	
	170	1	1	9.28835		0.12735		9.93065	
	171	1	1	8.65969		0.76851		0.60396	
	172	1	1	7.86635		1.14443		9.90473	
	173	1	1	8.62646		1.78481		9.38340	
	174	1	1	9.14580		1.13220		8.63238	
	175	1	1	9.60887		0.26273		8.09457	
	176	1	1	9.25808		0.12529		9.15178	
	177	1	1	8.80282		0.95007		8.54176	
	178	1	1	9.16528		1.64696		9.34339	
	179	1	1	8.18365		1.88990		8.85654	
	180	1	1	7.86704		2.38918		7.90253	
	181	1	1	8.01396		1.42318		7.35034	
	182	1	1	8.04845		2.12033		8.22922	
	183	1	1	8.01505		2.60347		7.21675	
	184	1	1	6.96316		2.71431		6.84138	
	185	1	1	7.34256		3.41424		6.05030	
	186	1	1	7.74411		3.70899		5.04455	
	187	1	1	7.42574		3.01977		5.87115	
	188	1	1	6.39531		3.29379		6.22155	
	189	1	1	6.91742		3.46561		7.20008	
	190	1	1	6.29482		4.16579		7.81794	
	191	1	1	7.01114		3.50391		7.26257	
	192	1	1	6.13399		2.80887		7.17782	
	193	1	1	7.14521		3.11958		7.55272	
	194	1	1	7.70111		2.35840		6.94342	
	195	1	1	8.00094		2.54683		8.00843	
	196	1	1	8.63084		1.64605		7.78156	
	197	1	1	9.37942		1.14145		8.44839	
	198	1	1	8.91934		0.21526		8.88444	
	199	1	1	9.59644		9.40580		8.50240	
	200	1	1	9.98650		0.27267		9.09909	
	201	1	1	9.73082		0.10680		0.17926	
	202	1	1	0.27496		0.01717		9.20176	
	203	1	1	9.60319		9.13974		9.39795	
	204	1	1	0.45222		9.62530		9.94843	
	205	1	1	0.88149		9.08311		9.06446	
	206	1	1	1.94721		8.75416		9.18973	
	207	1	1	1.29511		8.96520		0.07848	
	208	1	1	0.51856		9.32507		9.35246	
	209	1	1	1.00764		8.37605		9.00634	
	210	1	1	2.09851		8.55332		9.20180	
	211	1	1	2.01099		8.19794		0.26279	
	212	1	1	1.12302		7.52492		0.39768	
	213	1	1	1.26679		7.96284		9.37434	
	214	1	1	1.73683		8.01409		0.39223	
	215	1	1	1.27940		7.97626		1.41642	
	216	1	1	0.47681		8.10662		2.19005	
	217	1	1	1.00324		7.94767		3.16844	
	218	1	1	1.81371		7.51679		2.52258	
	219	1	1	1.38292		8.53157		2.73307	
	220	1	1	0.59393		9.32436		2.64023	
	221	1	1	0.94375		0.21020		3.23401	
	222	1	1	1.57054		0.99407		3.73633	
	223	1	1	1.93366		0.45845		2.81932	
	224	1	1	1.39650		9.56646		2.40046	
	225	1	1	1.48617		0.52592		2.97580	
	226	1	1	0.96981		0.80282		2.01855	
	227	1	1	1.17212		9.73595		1.73481	
	228	1	1	0.09609		9.94859		1.97271	
	229	1	1	0.80912		0.01548		2.83687	
	230	1	1	1.11107		9.04537		2.36006	
	231	1	1	0.16980		8.46737		2.55904	
	232	1	1	9.24012		8.71233		1.97995	
	233	1	1	9.30443		9.73797		1.52875	
	234	1	1	0.40738		9.71193		1.32271	
	235	1	1	0.25826		0.29253		0.37386	
	236	1	1	0.38984		9.28499		0.85050	
	237	1	1	9.44060		9.86295		0.69382	
	238	1	1	0.22593		9.92407		1.49330	
	239	1	1	1.27552		0.12946		1.83364	
	240	1	1	1.87808		0.48279		0.95517	
	241	1	1	2.21959		9.70670		0.21985	
	242	1	1	1.44938		9.26950		9.53043	
	243	1	1	1.27384		8.50680		0.33487	
	244	1	1	2.00969		9.30803		0.61093	
	245	1	1	1.99733		9.59829		1.69501	
	246	1	1	1.49877		8.59828		1.58988	
	247	1	1	1.98926		8.68557		0.58418	
	248	1	1	1.32654		8.31212		1.40940	
	249	1	1	0.67937		7.60176		1.98922	
	250	1	1	9.89957		8.05722		1.32279	
	251	1	1	0.36299		7.06440		1.56611	
	252	1	1	0.26195		8.17325		1.70715	
	253	1	1	0.42958		8.42893		0.62725	
	254	1	1	9.33313		8.19217		0.66454	
	255	1	1	0.08701		7.76375		9.95196	
	256	1	1	9.41850		8.62130		9.67384	
	257	1	1	0.29807		8.98880		0.26624	
	258	1	1	9.25341		8.87505		9.87204	
	259	1	1	0.10456		8.83810		0.60268	
	260	1	1	0.59653		7.91204		0.20265	
	261	1	1	0.80229		8.03942		1.29859	
	262	1	1	1.23207		8.94604		1.80155	
	263	1	1	1.74981		9.83720		2.24588	
	264	1	1	1.15862		9.19788		1.53777	
	265	1	1	1.78328		9.93090		0.96146	
	266	1	1	0.69534		0.13389		0.77483	
	267	1	1	9.85765		9.50942		0.36500	
	268	1	1	0.76143		8.93470		0.02953	
	269	1	1	0.05916		8.77361		0.89006	
	270	1	1	0.69813		9.02713		0.00289	
	271	1	1	1.15956		9.15198		1.01834	
	272	1	1	1.16683		0.22674		0.69512	
	273	1	1	1.25900		9.75710		9.67994	
	274	1	1	1.05460		8.67765		9.45047	
	275	1	1	0.31003		8.45195		0.25937	
	276	1	1	0.84394		9.13336		9.54504	
	277	1	1	0.69749		8.16801		0.09848	
	278	1	1	0.34537		9.20770		0.33236	
	279	1	1	9.82009		8.74143		1.20776	
	280	1	1	9.38289		8.33818		2.15955	
	281	1	1	9.12181		8.46242		3.24401	
	282	1	1	8.76330		7.88938		4.13997	
	283	1	1	9.47414		7.83181		5.00659	
	284	1	1	9.61171		6.75625		4.71696	
	285	1	1	9.15051		6.35336		3.77642	
	286	1	1	9.32579		5.24508		3.75099	
	287	1	1	9.51203		5.96406		4.59243	
	288	1	1	0.63231		5.99305		4.53096	
	289	1	1	1.72903		5.98507		4.29268	
	290	1	1	2.59779		6.03987		5.00113	
	291	1	1	2.48202		5.14973		4.32742	
	292	1	1	2.71786		5.77244		5.23089	
	293	1	1	3.56016		5.37098		4.60718	
	294	1	1	2.49180		5.24736		4.92806	
	295	1	1	2.96821		4.51065		4.22810	
	296	1	1	3.77534		4.45936		3.44993	
	297	1	1	4.71036		4.09834		3.95495	
	298	1	1	5.54349		4.67514		4.43749	
	299	1	1	5.10729		3.72370		4.03235	
	300	1	1	5.75496		4.56731		3.67390	
	301	1	1	5.69491		4.49072		4.79201	
	302	1	1	6.38418		3.66945		4.46024	
	303	1	1	6.46689		4.53675		3.75271	
	304	1	1	5.85208		3.60932		3.89947	
	305	1	1	6.70192		4.31632		3.70564	
	306	1	1	6.38246		4.55653		4.75440	
	307	1	1	6.53953		4.57441		3.64325	
	308	1	1	5.90268		5.45149		3.93442	
	309	1	1	6.05044		6.56027		4.02624	
	310	1	1	5.92299		6.45866		5.13668	
	311	1	1	6.58903		5.67810		4.68197	
	312	1	1	5.95029		6.58857		4.83264	
	313	1	1	7.03239		6.87759		4.76076	
	314	1	1	6.07407		6.92619		5.34291	
	315	1	1	5.50295		7.89229		5.33200	
	316	1	1	6.12069		6.96225		5.44633	
	317	1	1	5.98641		7.22927		6.52814	
	318	1	1	6.42779		6.39159		5.92555	
	319	1	1	5.50957		7.03408		5.98657	
	320	1	1	5.02632		6.42858		6.79865	
	321	1	1	5.07534		5.83521		5.84726	
	322	1	1	4.33960		6.46299		6.41666	
	323	1	1	5.13831		5.79000		6.82751	
	324	1	1	5.60814		5.48979		5.85346	
	325	1	1	5.52127		4.49747		6.37058	
	326	1	1	4.77081		3.71347		6.65656	
	327	1	1	5.73072		4.19142		6.32523	
	328	1	1	6.49192		4.63497		7.02055	
	329	1	1	5.50648		5.09814		6.74846	
	330	1	1	4.64744		4.40576		6.54278	
	331	1	1	5.57808		3.79441		6.68355	
	332	1	1	4.91924		3.92776		7.58232	
	333	1	1	5.61426		3.74994		6.71920	
	334	1	1	5.87382		2.84754		7.33398	
	335	1	1	5.70802		1.78826		7.66578	
	336	1	1	4.59780		1.64300		7.74302	
	337	1	1	4.46732		2.33715		6.87079	
	338	1	1	5.09996		1.65804		6.23973	
	339	1	1	5.74396		2.55022		6.46093	
	340	1	1	4.98774		3.14407		7.03983	
	341	1	1	5.51312		3.70761		6.22371	
	342	1	1	5.57871		3.03803		7.12204	
	343	1	1	6.46335		3.47709		6.58886	
	344	1	1	7.11679		2.90986		5.87408	
	345	1	1	6.30554		3.68326		5.93226	
	346	1	1	6.66890		2.63072		6.07291	
	347	1	1	5.59387		2.88421		5.87366	
	348	1	1	5.72541		3.99263		5.75643	
	349	1	1	5.86168		4.56605		6.71156	
	350	1	1	5.62371		5.45375		7.35576	
	351	1	1	4.62858		5.70986		6.90434	
	352	1	1	3.92551		5.96433		6.06733	
	353	1	1	3.43073		4.95987		5.99062	
	354	1	1	3.51898		4.41963		5.01082	
	355	1	1	4.06788		3.87345		4.19840	
	356	1	1	4.99904		3.36760		4.56815	
	357	1	1	4.39427		4.30320		4.70439	
	358	1	1	3.52244		4.91796		4.35565	
	359	1	1	4.26440		5.73228		4.14111	
	360	1	1	4.46484		5.77348		3.03758	
	361	1	1	5.42872		6.01587		2.51621	
	362	1	1	4.47380		5.54247		2.86788	
	363	1	1	3.37995		5.29135		2.85907	
	364	1	1	3.27405		4.35146		3.46326	
	365	1	1	4.38618		4.49939		3.49378	
	366	1	1	3.89640		5.48158		3.25911	
	367	1	1	4.11624		5.92238		4.26758	
	368	1	1	4.86529		6.36276		4.97795	
	369	1	1	5.94207		6.65701		5.09467	
	370	1	1	5.34374		5.83251		5.56569	
	371	1	1	6.36439		5.36580		5.55565	
	372	1	1	7.22829		4.77536		5.96149	
	373	1	1	6.42290		5.43287		5.53879	
	374	1	1	7.25478		4.81748		5.97344	
	375	1	1	6.95566		5.85381		5.66329	
	376	1	1	7.46573		5.28918		6.48833	
	377	1	1	7.71310		4.61092		5.62902	
	378	1	1	7.22547		4.62516		4.61824	
	379	1	1	6.68900		3.94699		5.33374	
	380	1	1	6.97635		3.66508		6.38140	
	381	1	1	5.91035		3.35168		6.53974	
	382	1	1	5.68289		2.25289		6.51552	
	383	1	1	5.16242		2.61511		5.58948	
	384	1	1	5.21577		2.74322		6.70321	
	385	1	1	5.89451		2.55934		5.82848	
	386	1	1	5.79593		3.65378		6.05676	
	387	1	1	6.06257		3.64191		7.14690	
	388	1	1	7.13346		3.70935		6.81783	
	389	1	1	6.44577		4.51318		7.19278	
	390	1	1	5.35750		4.77621		7.11454	
	391	1	1	5.42776		5.87282		7.34291	
	392	1	1	6.43969		5.82514		6.85983	
	393	1	1	7.48519		5.52286		7.13405	
	394	1	1	6.50579		6.04468		6.96639	
	395	1	1	6.12050		6.17434		5.92026	
	396	1	1	5.91841		5.39405		6.70126	
	397	1	1	5.82560		4.40135		6.18591	
	398	1	1	5.92773		3.28387		6.16459	
	399	1	1	6.46208		3.30386		5.17782	
	400	1	1	6.16322		2.23560		5.34851	
	401	1	2	7.07234		2.68995		5.82466	
	402	1	2	7.16739		1.57511		5.73677	
	403	1	2	7.29118		1.88797		4.66606	
	404	1	2	7.85771		2.23177		3.76024	
	405	1	2	8.54995		3.10455		3.89703	
	406	1	2	8.60585		3.53852		2.86349	
	407	1	2	8.30644		3.28976		3.91617	
	408	1	2	8.40559		4.09129		3.13683	
	409	1	2	7.57326		3.53849		2.62566	
	410	1	2	6.90817		3.71055		3.51319	
	411	1	2	7.70880		4.40149		3.88902	
	412	1	2	7.78415		5.49386		4.13537	
	413	1	2	8.40282		6.11705		4.83433	
	414	1	2	9.21655		6.85554		5.06264	
	415	1	2	8.72727		6.75440		6.06763	
	416	1	2	9.15203		5.78345		5.69819	
	417	1	2	8.68758		4.76174		5.69135	
	418	1	2	9.80143		4.62475		5.67629	
	419	1	2	9.05403		3.90843		5.24277	
	420	1	2	8.02064		3.48088		5.14816	
	421	1	2	8.17918		3.43449		4.03804	
	422	1	2	7.48716		3.53318		3.15997	
	423	1	2	8.03640		4.34725		3.70335	
	424	1	2	8.27809		5.10298		4.49714	
	425	1	2	9.33777		4.73347		4.51066	
	426	1	2	9.27021		3.67320		4.87248	
	427	1	2	9.25164		4.65448		4.32807	
	428	1	2	8.86568		5.68872		4.12550	
	429	1	2	9.17253		6.70212		4.49767	
	430	1	2	0.00369		6.09404		4.05150	
	431	1	2	0.33460		6.61438		4.98927	
	432	1	2	0.75090		7.08159		4.05757	
	433	1	2	0.94015		6.05051		3.65669	
	434	1	2	1.23348		6.27827		4.71581	
	435	1	2	1.26392		5.25871		5.18401	
	436	1	2	0.48129		4.46438		5.05677	
	437	1	2	0.98104		4.65934		4.07092	
	438	1	2	1.73404		4.68491		4.90278	
	439	1	2	0.78627		4.22194		4.51931	
	440	1	2	0.06228		4.31181		5.37219	
	441	1	2	0.29032		3.24777		5.09748	
	442	1	2	0.95019		3.88589		5.74326	
	443	1	2	1.08031		3.05922		6.49114	
	444	1	2	2.17512		2.85212		6.35641	
	445	1	2	2.96379		3.03066		5.57810	
	446	1	2	2.09605		3.54932		6.06561	
	447	1	2	0.98781		3.38943		5.98888	
	448	1	2	1.90555		4.03244		5.92605	
	449	1	2	0.93526		4.57812		6.06897	
	450	1	2	0.57049		4.80706		7.10539	
	451	1	2	0.47973		3.87490		7.72384	
	452	1	2	9.40471		4.09427		7.96019	
	453	1	2	9.50594		4.73005		8.87953	
	454	1	2	9.01459		3.86179		8.36539	
	455	1	2	8.86104		2.85203		8.83064	
	456	1	2	9.26470		1.89973		8.39494	
	457	1	2	9.48249		1.94017		7.29467	
	458	1	2	9.20669		3.00856		7.49990	
	459	1	2	9.22728		2.83676		6.39098	
	460	1	2	8.95676		2.91416		5.30448	
	461	1	2	8.63576		3.98461		5.20082	
	462	1	2	8.87557		3.65155		6.24543	
	463	1	2	8.24357		3.81149		5.33184	
	464	1	2	7.58214		4.08971		4.46885	
	465	1	2	7.59431		3.21449		3.76636	
	466	1	2	7.93691		3.45147		2.72420	
	467	1	2	7.30682		2.79517		3.38139	
	468	1	2	7.68254		3.82242		3.63283	
	469	1	2	8.25820		4.67645		4.07882	
	470	1	2	7.53475		3.82589		4.19199	
	471	1	2	6.48638		3.56294		3.88960	
	472	1	2	6.22488		3.00202		2.95331	
	473	1	2	6.68738		2.30936		2.20101	
	474	1	2	6.20783		3.12884		2.79946	
	475	1	2	6.28874		2.01438		2.90473	
	476	1	2	5.22944		1.70084		3.10277	
	477	1	2	4.79271		0.67804		3.25379	
	478	1	2	5.06614		1.24178		2.32262	
	479	1	2	5.56819		0.25048		2.16474	
	480	1	2	4.95822		9.38866		2.54533	
	481	1	2	6.03393		9.14361		2.75140	
	482	1	2	6.91962		9.23227		3.43501	
	483	1	2	7.84280		9.01012		4.03337	
	484	1	2	7.83562		8.96019		5.15458	
	485	1	2	7.18469		8.25932		5.74171	
	486	1	2	6.62049		7.94461		6.65947	
	487	1	2	6.40768		7.49229		7.66434	
	488	1	2	5.37743		7.83423		7.37920	
	489	1	2	5.44230		8.49913		6.47734	
	490	1	2	4.49705		8.47111		7.08179	
	491	1	2	3.60773		9.04324		6.70573	
	492	1	2	3.71383		8.61909		7.73940	
	493	1	2	3.61021		8.12089		8.73976	
	494	1	2	4.49866		8.24304		8.06493	
	495	1	2	3.82715		7.96286		8.91946	
	496	1	2	3.15346		7.26204		9.48038	
	497	1	2	3.85862		6.92707		8.67404	
	498	1	2	3.83808		6.25821		9.57506	
	499	1	2	2.93258		6.74472		0.02564	
	500	1	2	2.38282		6.35828		9.12671	
	501	1	2	2.24782		5.31955		8.72365	
	502	1	2	1.59530		5.38609		9.63439	
	503	1	2	0.75615		4.82622		0.12636	
	504	1	2	1.78089		4.82221		0.58414	
	505	1	2	1.23205		3.84327		0.57399	
	506	1	2	1.91407		3.56444		9.72738	
	507	1	2	2.76599		3.44479		0.44818	
	508	1	2	3.42860		2.94369		1.20283	
	509	1	2	2.52184		3.57179		1.41002	
	510	1	2	2.73117		2.57381		1.87891	
	511	1	2	1.74758		2.75542		1.36977	
	512	1	2	2.69863		3.29819		1.61583	
	513	1	2	2.73401		4.04998		2.44842	
	514	1	2	1.83532		3.79579		1.82600	
	515	1	2	1.89314		4.14156		2.89219	
	516	1	2	1.80266		3.42905		3.75462	
	517	1	2	0.73086		3.76174		3.76921	
	518	1	2	9.90258		3.66119		3.01855	
	519	1	2	9.42060		3.16762		2.13327	
	520	1	2	9.01330		2.27448		1.58916	
	521	1	2	9.24134		1.18180		1.47215	
	522	1	2	9.79863		0.56850		2.22907	
	523	1	2	0.54624		0.11338		2.93163	
	524	1	2	0.52456		0.87345		2.10612	
	525	1	2	1.16153		1.73172		1.76363	
	526	1	2	0.51241		1.90550		2.66258	
	527	1	2	1.32294		1.12917		2.66566	
	528	1	2	0.71205		0.60428		3.44729	
	529	1	2	1.17547		9.81038		4.09120	
	530	1	2	0.33111		0.54194		4.19860	
	531	1	2	1.07449		1.38087		4.25546	
	532	1	2	0.22165		2.09095		4.08784	
	533	1	2	1.13438		2.71186		4.29046	
	534	1	2	0.93236		3.78484		4.55036	
	535	1	2	0.39106		3.56477		3.59212	
	536	1	2	1.35071		4.02585		3.23697	
	537	1	2	2.41618		4.33637		3.06968	
	538	1	2	1.86440		4.48473		2.10367	
	539	1	2	1.61570		4.73971		1.03935	
	540	1	2	0.97064		5.63394		0.82982	
	541	1	2	1.70325		5.97715		1.60772	
	542	1	2	1.82681		5.48414		2.60838	
	543	1	2	2.43164		4.88440		3.33923	
	544	1	2	2.53393		4.49097		4.38537	
	545	1	2	2.82374		5.40828		3.80725	
	546	1	2	2.14064		6.22378		3.44954	
	547	1	2	2.81647		6.67214		2.67374	
	548	1	2	2.98808		6.82918		1.57577	
	549	1	2	3.31725		6.01367		0.87846	
	550	1	2	4.17631		5.38304		0.52635	
	551	1	2	4.88058		6.08317		0.00341	
	552	1	2	4.32777		5.43632		0.73529	
	553	1	2	5.40447		5.14987		0.87061	
	554	1	2	5.04709		5.25729		9.81213	
	555	1	2	5.11675		4.29812		0.39073	
	556	1	2	4.47156		4.06872		9.50149	
	557	1	2	3.60552		4.48877		0.07871	
	558	1	2	3.76140		4.00108		9.07996	
	559	1	2	3.39835		3.85157		0.13138	
	560	1	2	4.46646		3.77940		9.79439	
	561	1	2	4.09719		2.94247		9.14414	
	562	1	2	4.51700		3.90772		8.75465	
	563	1	2	4.89050		2.84964		8.72985	
	564	1	2	4.26979		2.70948		7.80534	
	565	1	2	3.63853		1.93409		7.29550	
	566	1	2	4.20084		2.30002		8.19525	
	567	1	2	3.58908		1.47303		8.64413	
	568	1	2	4.44882		1.80103		8.00155	
	569	1	2	3.76096		2.02325		8.86009	
	570	1	2	4.67701		1.49639		9.23812	
	571	1	2	4.29176		1.31930		8.19895	
	572	1	2	3.47588		1.02870		7.48514	
	573	1	2	3.53476		0.23425		8.27573	
	574	1	2	3.24153		0.03381		7.21107	
	575	1	2	2.65820		0.00761		6.25259	
	576	1	2	3.61549		9.59169		5.83996	
	577	1	2	4.65636		9.61472		6.25913	
	578	1	2	5.71242		9.31424		6.02658	
	579	1	2	5.85478		9.73938		4.99767	
	580	1	2	6.10803		0.71691		4.50784	
	581	1	2	6.97859		0.56482		5.19968	
	582	1	2	6.83266		1.20909		6.10702	
	583	1	2	6.31523		0.22423		5.95882	
	584	1	2	6.76564		9.56136		5.17308	
	585	1	2	7.61132		0.00679		5.76134	
	586	1	2	7.21346		9.64475		6.74637	
	587	1	2	7.04994		8.97817		7.63439	
	588	1	2	6.34837		9.85395		7.65577	
	589	1	2	6.53993		9.49813		6.60871	
	590	1	2	6.48748		9.29265		5.50658	
	591	1	2	6.09684		8.41725		6.09029	
	592	1	2	6.43315		8.62139		7.14142	
	593	1	2	6.09402		8.26573		8.15045	
	594	1	2	5.14830		7.89732		7.67135	
	595	1	2	4.83570		8.13666		6.62033	
	596	1	2	4.59107		8.47922		7.66074	
	597	1	2	5.37819		7.83907		7.18084	
	598	1	2	5.74673		8.89839		7.13998	
	599	1	2	4.63385		8.75304		7.13655	
	600	1	2	4.23642		9.21797		6.19552	
	601	1	2	5.18166		8.83206		5.72942	
	602	1	2	6.02570		9.55115		5.55577	
	603	1	2	7.00600		9.00953		5.48297	
	604	1	2	6.17873		9.29751		4.78131	
	605	1	2	5.80793		8.81786		3.83680	
	606	1	2	6.86394		8.97342		4.18365	
	607	1	2	5.99560		8.64922		4.81653	
	608	1	2	5.19587		8.87029		5.57231	
	609	1	2	4.19933		9.18946		5.97813	
	610	1	2	3.59882		9.92150		5.37550	
	611	1	2	3.06969		0.64380		6.05222	
	612	1	2	2.93893		1.41732		6.85485	
	613	1	2	3.00041		2.11267		5.97602	
	614	1	2	2.11439		2.79857		6.04054	
	615	1	2	2.38642		3.73869		5.49117	
	616	1	2	3.14955		3.09505		4.97834	
	617	1	2	3.95945		2.32206		4.89957	
	618	1	2	3.83214		1.91953		5.93948	
	619	1	2	4.84945		1.89410		5.46611	
	620	1	2	4.70747		1.97264		4.35556	
	621	1	2	5.13225		2.38850		5.30754	
	622	1	2	4.47020		1.91323		6.07920	
	623	1	2	3.35686		1.99132		6.19756	
	624	1	2	4.39266		2.41749		6.26916	
	625	1	2	4.52537		1.71741		7.13629	
	626	1	2	5.50898		1.28807		7.46466	
	627	1	2	6.21267		2.05259		7.04043	
	628	1	2	5.31840		2.65667		7.34868	
	629	1	2	5.97138		3.20884		8.07557	
	630	1	2	6.42393		2.36667		7.48770	
	631	1	2	6.71436		2.05841		8.52706	
	632	1	2	7.73596		2.15746		8.07300	
	633	1	2	7.30663		2.40230		9.08066	
	634	1	2	7.83474		1.57759		8.53239	
	635	1	2	7.88100		0.99072		7.57683	
	636	1	2	8.43120		1.78037		8.15423	
	637	1	2	7.48865		1.17154		8.17832	
	638	1	2	7.93388		1.04425		7.15597	
	639	1	2	8.01392		1.88728		6.41939	
	640	1	2	9.05050		2.24552		6.18104	
	641	1	2	8.93152		2.62448		5.13134	
	642	1	2	9.23688		1.77676		5.80050	
	643	1	2	9.75370		2.63717		6.30272	
	644	1	2	8.64788		2.78338		6.42699	
	645	1	2	8.78143		1.98012		5.65460	
	646	1	2	8.41004		3.03104		5.78614	
	647	1	2	8.19727		1.94780		5.58372	
	648	1	2	9.29403		2.18507		5.56217	
	649	1	2	8.52846		2.41203		4.77347	
	650	1	2	8.88730		1.69205		3.99084	
	651	1	2	9.94325		1.95663		4.26401	
	652	1	2	9.11888		2.21213		3.54653	
	653	1	2	8.00083		2.23669		3.45166	
	654	1	2	7.84315		3.34781		3.43779	
	655	1	2	8.59460		3.48191		2.61500	
	656	1	2	9.23510		2.85679		1.93778	
	657	1	2	9.78978		3.82467		1.81455	
	658	1	2	0.88023		3.55904		1.81706	
	659	1	2	0.53559		3.03146		0.88833	
	660	1	2	0.47994		3.10838		2.00665	
	661	1	2	1.14855		3.57781		2.77622	
	662	1	2	0.04090		3.40209		2.81946	
	663	1	2	9.23978		2.65839		3.07395	
	664	1	2	9.25906		1.82878		3.82961	
	665	1	2	9.07321		2.61108		4.61262	
	666	1	2	8.04872		3.01708		4.82533	
	667	1	2	8.17868		3.58642		3.86689	
	668	1	2	8.64279		3.15235		2.94178	
	669	1	2	8.26814		3.87244		3.71686	
	670	1	2	8.03404		2.90734		3.19396	
	671	1	2	8.55858		3.86100		2.92003	
	672	1	2	9.57919		3.72606		2.47305	
	673	1	2	9.76731		4.67757		1.90834	
	674	1	2	9.23202		5.09867		2.80041	
	675	1	2	9.74472		4.21185		2.34178	
	676	1	2	0.43855		5.04589		2.05432	
	677	1	2	0.45590		5.08503		0.93280	
	678	1	2	1.48130		4.90028		0.51557	
	679	1	2	1.11980		5.45196		9.60749	
	680	1	2	2.03457		6.09898		9.54270	
	681	1	2	1.50787		5.20428		9.11638	
	682	1	2	2.60828		5.31182		8.92353	
	683	1	2	2.14670		6.23393		9.36659	
	684	1	2	2.27267		5.15320		9.64187	
	685	1	2	3.17133		4.70861		9.13749	
	686	1	2	2.70240		3.70617		9.32422	
	687	1	2	3.39302		3.48617		8.46732	
	688	1	2	2.95631		3.76037		9.46418	
	689	1	2	3.59809		3.75448		8.54346	
	690	1	2	4.30106		3.36644		7.75930	
	691	1	2	3.55168		2.64424		8.17943	
	692	1	2	3.53689		2.18943		7.15347	
	693	1	2	4.16079		2.20520		6.22066	
	694	1	2	3.07788		2.18686		5.92636	
	695	1	2	3.43421		3.23507		5.74215	
	696	1	2	3.56163		2.32128		6.38122	
	697	1	2	3.33171		1.43423		7.02923	
	698	1	2	2.44719		1.81405		7.60631	
	699	1	2	1.43073		2.15135		7.27061	
	700	1	2	1.05462		1.11916		7.50034	
	701	1	2	1.78698		1.02653		6.65493	
	702	1	2	1.88597		0.47042		5.68509	
	703	1	2	2.52420		1.31552		6.05674	
	704	1	2	3.14230		1.48237		5.13492	
	705	1	2	3.40732		0.40092		5.27593	
	706	1	2	3.32685		9.28153		5.26423	
	707	1	2	2.21932		9.17110		5.40855	
	708	1	2	1.99972		8.57572		4.48284	
	709	1	2	1.96066		7.90014		3.58746	
	710	1	2	2.59734		8.82424		3.60583	
	711	1	2	2.16487		8.19363		4.42739	
	712	1	2	2.42797		8.92802		5.23430	
	713	1	2	1.47081		8.63580		4.72627	
	714	1	2	1.58163		9.48813		5.44800	
	715	1	2	2.54774		8.92150		5.52022	
	716	1	2	2.47587		8.92677		6.64024	
	717	1	2	2.43870		9.71249		7.44081	
	718	1	2	2.78893		0.68467		7.87882	
	719	1	2	3.28129		1.36620		8.62229	
	720	1	2	3.69281		1.62075		7.60963	
	721	1	2	3.04115		2.18505		6.89091	
	722	1	2	3.76346		1.41155		7.26455	
	723	1	2	4.48312		1.02096		8.03213	
	724	1	2	4.19779		0.35004		7.17884	
	725	1	2	3.19361		0.62137		6.75735	
	726	1	2	3.27888		9.61325		6.27149	
	727	1	2	3.38081		9.40956		5.17250	
	728	1	2	3.37143		8.35149		4.79827	
	729	1	2	3.36921		8.44073		3.67948	
	730	1	2	4.15507		7.68985		3.39975	
	731	1	2	4.21918		6.78671		4.06298	
	732	1	2	3.51015		7.36682		4.71136	
	733	1	2	3.52390		7.88460		5.70703	
	734	1	2	4.44350		8.05682		5.08709	
	735	1	2	5.43908		8.16343		5.59415	
	736	1	2	4.85102		8.98648		6.08037	
	737	1	2	4.34864		9.88206		6.53338	
	738	1	2	3.37083		9.33150		6.55397	
	739	1	2	4.09908		0.15997		6.34674	
	740	1	2	4.47024		9.10348		6.27117	
	741	1	2	3.67572		8.61835		6.89809	
	742	1	2	4.75366		8.73196		6.60692	
	743	1	2	4.45221		7.65180		6.56181	
	744	1	2	4.76920		7.59713		7.63706	
	745	1	2	5.22108		6.79511		8.27910	
	746	1	2	4.24142		6.55292		8.77029	
	747	1	2	3.25047		6.82479		9.22168	
	748	1	2	2.86214		5.91957		8.68370	
	749	1	2	3.53641		6.38902		9.44830	
	750	1	2	3.40987		5.65569		8.60814	
	751	1	2	4.37755		5.54684		8.05012	
	752	1	2	4.01181		6.36554		7.37512	
	753	1	2	4.31161		5.44781		7.94743	
	754	1	2	4.89819		4.66150		8.49268	
	755	1	2	4.26837		5.51749		8.85359	
	756	1	2	3.60704		4.65564		8.57162	
	757	1	2	3.18478		3.70140		8.15838	
	758	1	2	2.65505		4.07333		7.24148	
	759	1	2	2.89734		5.05693		6.75831	
	760	1	2	2.35526		4.30059		6.13082	
	761	1	2	2.78734		3.90557		7.08838	
	762	1	2	2.40387		2.87303		7.30394	
	763	1	2	1.92983		3.42007		8.16166	
	764	1	2	2.93358		3.29459		7.67544	
	765	1	2	3.75011		3.48406		8.42179	
	766	1	2	2.80584		4.08350		8.51486	
	767	1	2	3.33585		5.06114		8.36332	
	768	1	2	3.55429		3.96447		8.26716	
	769	1	2	3.13302		3.20561		8.97872	
	770	1	2	2.73508		4.02475		9.63469	
	771	1	2	1.94229		3.65602		8.93101	
	772	1	2	2.23181		2.73675		8.35587	
	773	1	2	3.08259		3.03742		7.68847	
	774	1	2	3.00196		3.66689		8.61417	
	775	1	2	4.03237		3.26883		8.81276	
	776	1	2	3.62720		3.60415		9.80424	
	777	1	2	2.79303		3.54395		0.55269	
	778	1	2	2.43355		3.17564		1.55007	
	779	1	2	3.42587		2.85447		1.13561	
	780	1	2	2.50757		2.59279		0.54579	
	781	1	2	3.38904		3.28522		0.60231	
	782	1	2	4.15985		4.05098		0.88359	
	783	1	2	4.72055		4.94700		1.26094	
	784	1	2	4.24297		5.20169		0.27774	
	785	1	2	5.04858		5.82584		0.74791	