#-----------------------------------------------------------------------------------           
# NANOPOLY - POLYMER NANOCOMPOSITE STRUCTURAL DATA FILE                                        
#-----------------------------------------------------------------------------------           
# FILENAME:  int_structure.in                                                                  
# DATE: 2021-09-24                                                                                
#-----------------------------------------------------------------------------------           
                                                                                               
8000 atoms                                                             
7990 bonds                                                             
                                                                                               
2 atom types                                      
1 bond types                                            
                                                                                    
0.0000 22.0000 xlo xhi            
0.0000 22.0000 ylo yhi            
0.0000 22.0000 zlo zhi            
                                                                                    
                                                                                    
# Types have been converted numerically as follows:                                 
# 1 mainbead
# 2 subbead
                                                                                    
Masses                                                                              
                                                                                    
1	0.5
2	1.0

Atoms                                                                               

	1	1	1	2.30218		10.96649		16.14456	
	2	1	2	1.49881		10.93021		15.36167	
	3	1	1	0.41765		10.80273		15.63459	
	4	1	2	21.49670		10.32962		15.20139	
	5	1	1	21.77531		10.38032		16.28742	
	6	1	2	21.74742		10.02329		15.22374	
	7	1	1	21.87275		8.95960		14.88833	
	8	1	2	21.03051		8.87375		15.62515	
	9	1	1	21.96716		9.26824		16.10128	
	10	1	2	21.89615		10.38780		16.13580	
	11	1	1	21.18288		10.53511		16.98972	
	12	1	2	21.31077		10.41300		18.09805	
	13	1	1	20.71914		10.65476		19.02063	
	14	1	2	20.23970		11.15714		18.13893	
	15	1	1	20.52721		10.13169		17.78477	
	16	1	2	21.54988		10.11158		18.24671	
	17	1	1	0.62150		9.78757		18.16735	
	18	1	2	1.52125		9.97314		18.81207	
	19	1	1	1.35078		10.99447		19.24505	
	20	1	2	1.64679		10.25168		18.45747	
	21	1	1	0.97186		9.74981		19.20061	
	22	1	2	0.72608		8.68520		18.94402	
	23	1	1	0.41459		9.51966		18.26117	
	24	1	2	0.81655		10.12048		19.11971	
	25	1	1	1.72855		10.16747		19.77216	
	26	1	2	0.66927		9.82780		19.92115	
	27	1	1	1.02645		9.34982		18.97056	
	28	1	2	0.43884		10.16565		19.46935	
	29	1	1	0.65550		10.58972		20.48566	
	30	1	2	21.88361		10.03703		19.88702	
	31	1	1	21.52104		9.66451		18.89233	
	32	1	2	21.92660		10.57571		18.37767	
	33	1	1	0.04555		9.70195		19.07197	
	34	1	2	1.09982		9.32863		19.16578	
	35	1	1	0.50800		8.38248		19.04661	
	36	1	2	1.07230		7.47423		18.70561	
	37	1	1	1.97774		7.16141		19.29041	
	38	1	2	1.52463		7.54940		18.33972	
	39	1	1	0.63320		7.07544		18.83000	
	40	1	2	0.47762		7.24587		19.92836	
	41	1	1	0.07741		6.35514		20.48160	
	42	1	2	21.86080		7.27232		19.87208	
	43	1	1	0.06670		6.66688		20.79441	
	44	1	2	21.10439		6.35142		21.27824	
	45	1	1	20.40244		6.66371		0.09640	
	46	1	2	19.69324		6.62123		21.22755	
	47	1	1	19.11972		7.10637		0.06143	
	48	1	2	19.72721		6.79919		21.16910	
	49	1	1	19.87201		5.92449		21.85727	
	50	1	2	19.66645		6.53190		20.93616	
	51	1	1	20.57199		7.19357		20.97926	
	52	1	2	20.95957		6.16067		20.77301	
	53	1	1	21.39404		5.27679		20.23482	
	54	1	2	20.46145		4.67463		20.40006	
	55	1	1	20.60893		5.64409		19.85414	
	56	1	2	21.06878		5.94894		20.83151	
	57	1	1	20.82536		5.65493		19.77607	
	58	1	2	21.70008		4.97556		19.95760	
	59	1	1	0.36123		4.06905		19.98544	
	60	1	2	0.18182		4.74897		20.86017	
	61	1	1	0.86145		5.41760		21.45236	
	62	1	2	0.96711		5.15936		0.53947	
	63	1	1	1.31451		4.72330		21.56540	
	64	1	2	2.17877		4.89207		20.86953	
	65	1	1	2.94717		5.10317		21.65987	
	66	1	2	3.26736		5.02828		20.58679	
	67	1	1	2.39543		4.33493		20.45021	
	68	1	2	2.63813		4.39867		19.35628	
	69	1	1	2.60015		4.09471		20.43601	
	70	1	2	2.43424		5.18894		20.62250	
	71	1	1	2.36575		5.22216		21.74225	
	72	1	2	2.91139		6.07043		21.24994	
	73	1	1	3.15824		7.12934		20.97171	
	74	1	2	3.86901		7.45958		20.16834	
	75	1	1	4.79098		7.84054		19.65407	
	76	1	2	3.96384		8.25008		19.01551	
	77	1	1	4.94698		8.76503		18.84844	
	78	1	2	4.01713		9.29361		18.50838	
	79	1	1	3.78820		9.93482		17.61615	
	80	1	2	3.13014		9.03740		17.76187	
	81	1	1	2.67563		8.05290		17.47236	
	82	1	2	2.96991		8.30816		18.52492	
	83	1	1	3.41109		7.30267		18.75726	
	84	1	2	3.61529		6.21501		18.94422	
	85	1	1	3.49526		5.27625		18.34092	
	86	1	2	4.31747		4.52253		18.46547	
	87	1	1	4.75162		5.55701		18.43385	
	88	1	2	4.04037		5.51624		19.30109	
	89	1	1	4.15125		6.63243		19.33929	
	90	1	2	4.20080		6.42056		18.23824	
	91	1	1	4.40400		5.79350		19.14662	
	92	1	2	4.75252		4.84030		18.66746	
	93	1	1	3.92147		4.32126		18.12010	
	94	1	2	4.53752		4.21918		17.18751	
	95	1	1	4.81361		3.64142		18.10925	
	96	1	2	4.00854		3.03309		17.61787	
	97	1	1	4.80026		2.38248		17.16012	
	98	1	2	3.89585		1.72441		17.25293	
	99	1	1	3.05145		1.99187		16.56364	
	100	1	2	3.02329		2.59794		17.50785	
	101	1	1	2.72071		2.73715		16.43607	
	102	1	2	2.78093		2.23390		15.43469	
	103	1	1	2.62129		1.56048		14.55113	
	104	1	2	2.76749		2.56165		14.06540	
	105	1	1	2.79628		1.82220		14.90922	
	106	1	2	3.26851		1.56286		15.89380	
	107	1	1	3.93379		1.43036		16.78794	
	108	1	2	4.35176		2.47145		16.75489	
	109	1	1	3.32274		2.44870		16.30740	
	110	1	2	4.02063		2.69085		15.46245	
	111	1	1	3.78727		2.59139		14.36915	
	112	1	2	3.05556		2.90544		15.16011	
	113	1	1	2.32987		2.76124		16.00405	
	114	1	2	2.29515		3.66907		15.34505	
	115	1	1	3.37394		3.97864		15.34130	
	116	1	2	2.42850		3.59991		15.81282	
	117	1	1	3.00195		2.76814		15.32398	
	118	1	2	2.98941		1.69839		15.66328	
	119	1	1	2.85594		1.79122		16.77378	
	120	1	2	2.23323		0.87071		16.61709	
	121	1	1	1.30901		0.37674		16.21529	
	122	1	2	0.89617		0.65865		17.22015	
	123	1	1	0.19542		21.86714		17.59714	
	124	1	2	21.81249		0.62009		16.85817	
	125	1	1	0.13351		0.56575		15.78409	
	126	1	2	0.33047		21.50936		15.46019	
	127	1	1	21.27576		21.16146		15.62207	
	128	1	2	0.37366		21.07109		15.83681	
	129	1	1	1.38104		20.87686		16.29189	
	130	1	2	0.53535		20.53915		15.63584	
	131	1	1	0.46701		21.13797		16.58261	
	132	1	2	0.81773		21.27405		17.64002	
	133	1	1	0.01421		20.93221		16.93493	
	134	1	2	21.12336		20.81276		16.26280	
	135	1	1	21.13819		20.59061		17.36283	
	136	1	2	0.18949		20.65038		17.75121	
	137	1	1	21.71424		21.50796		17.20499	
	138	1	2	21.43050		21.65226		16.12874	
	139	1	1	0.20850		0.39452		16.45029	
	140	1	2	0.07632		1.46744		16.14860	
	141	1	1	21.08080		1.91652		16.40727	
	142	1	2	20.61338		1.64849		15.42273	
	143	1	1	21.08743		2.32178		16.18537	
	144	1	2	21.79472		2.57848		15.35261	
	145	1	1	0.80953		2.12455		15.50674	
	146	1	2	1.56450		1.29925		15.41433	
	147	1	1	2.51166		1.50120		14.84709	
	148	1	2	2.08880		1.98296		15.76837	
	149	1	1	2.49741		3.02803		15.79078	
	150	1	2	3.11025		3.33889		16.67815	
	151	1	1	2.93776		3.84023		15.68894	
	152	1	2	3.79884		3.16882		15.42932	
	153	1	1	3.61090		2.63547		14.45986	
	154	1	2	3.70235		2.00883		15.38647	
	155	1	1	4.39182		1.73592		16.22896	
	156	1	2	4.31642		1.00101		17.07387	
	157	1	1	3.22224		1.23802		17.15276	
	158	1	2	2.52854		1.22916		18.03500	
	159	1	1	1.76059		1.02164		17.24328	
	160	1	2	1.76241		1.39734		16.18569	
	161	1	1	2.58670		2.11567		16.43907	
	162	1	2	1.65538		1.49043		16.40197	
	163	1	1	1.30705		1.49501		17.46888	
	164	1	2	1.75960		0.47538		17.59213	
	165	1	1	1.09939		21.69839		18.06123	
	166	1	2	1.26765		21.80201		16.95642	
	167	1	1	1.36065		0.00833		15.85714	
	168	1	2	1.75518		0.34745		14.86266	
	169	1	1	0.91338		21.79647		15.36010	
	170	1	2	0.20107		21.84985		14.49442	
	171	1	1	21.76959		0.79448		14.06881	
	172	1	2	21.50941		0.12676		14.93258	
	173	1	1	21.78459		0.06938		13.84602	
	174	1	2	21.10046		0.71213		13.23080	
	175	1	1	21.37535		0.73878		14.31863	
	176	1	2	20.92111		0.33408		13.37548	
	177	1	1	20.42133		1.03571		12.65604	
	178	1	2	20.55147		1.99132		13.23009	
	179	1	1	20.93083		2.48407		14.16440	
	180	1	2	20.08271		1.85026		13.79208	
	181	1	1	19.39576		0.96807		13.69466	
	182	1	2	18.73272		0.66428		12.84159	
	183	1	1	17.69686		0.27342		12.65752	
	184	1	2	18.18766		1.23446		12.96601	
	185	1	1	17.25276		1.84096		13.09937	
	186	1	2	16.49117		1.39855		12.40375	
	187	1	1	17.17114		1.24846		13.28395	
	188	1	2	16.95041		0.16045		13.11916	
	189	1	1	17.71905		0.05108		13.92965	
	190	1	2	17.75185		21.31464		14.77595	
	191	1	1	17.47682		20.87343		15.77060	
	192	1	2	18.28707		21.20782		16.47155	
	193	1	1	18.16571		20.13184		16.17628	
	194	1	2	18.57227		21.16487		16.34120	
	195	1	1	18.23892		20.13334		16.05055	
	196	1	2	17.98370		20.37402		17.11666	
	197	1	1	17.83881		20.56143		16.01960	
	198	1	2	18.72482		20.98987		15.48009	
	199	1	1	19.15781		20.18835		14.82454	
	200	1	2	19.74224		19.43412		15.41549	
	201	1	1	18.97304		19.92651		14.76315	
	202	1	2	20.02653		19.57147		14.91725	
	203	1	1	19.59061		19.21853		13.94511	
	204	1	2	18.64888		18.93325		14.48493	
	205	1	1	19.50553		19.30875		13.86461	
	206	1	2	20.05418		18.56476		13.22814	
	207	1	1	20.07387		17.45287		13.37968	
	208	1	2	19.48794		18.11442		12.68782	
	209	1	1	20.47923		17.84546		12.23544	
	210	1	2	20.91204		17.51977		11.25246	
	211	1	1	21.47396		17.17091		10.34571	
	212	1	2	21.89055		17.90327		9.60427	
	213	1	1	21.74892		17.94446		10.71687	
	214	1	2	0.16082		18.87881		11.18268	
	215	1	1	21.78665		18.34794		12.09801	
	216	1	2	0.58972		19.12175		11.97174	
	217	1	1	21.64295		19.68852		12.17678	
	218	1	2	0.03311		20.73268		12.04584	
	219	1	1	0.37715		20.49983		11.00321	
	220	1	2	21.59036		20.95399		10.34416	
	221	1	1	20.74926		21.53680		9.88316	
	222	1	2	19.72435		21.43586		10.32929	
	223	1	1	20.60030		0.08327		10.05869	
	224	1	2	19.48830		0.01401		10.19395	
	225	1	1	19.90930		21.16720		10.79837	
	226	1	2	20.79775		21.77749		11.11118	
	227	1	1	21.08886		0.85855		11.18994	
	228	1	2	21.16691		0.86144		12.30956	
	229	1	1	21.85593		0.00211		12.09405	
	230	1	2	0.80009		0.60755		12.05351	
	231	1	1	0.37194		21.60401		11.79041	
	232	1	2	21.36932		21.14494		11.99940	
	233	1	1	21.72179		20.45568		11.18679	
	234	1	2	0.32202		20.74032		12.09142	
	235	1	1	21.41806		20.26653		12.55836	
	236	1	2	0.07271		21.12211		12.24362	
	237	1	1	0.51304		21.19280		13.27355	
	238	1	2	1.26792		21.38844		14.08072	
	239	1	1	0.71612		21.51442		15.04990	
	240	1	2	1.31860		0.18914		14.38550	
	241	1	1	1.41282		21.08124		14.23281	
	242	1	2	2.25044		20.64524		14.83939	
	243	1	1	1.49057		19.88448		14.51772	
	244	1	2	2.29473		19.10265		14.55894	
	245	1	1	1.54546		18.30744		14.81564	
	246	1	2	2.20373		19.03923		15.35491	
	247	1	1	1.22793		19.26770		14.84966	
	248	1	2	0.92319		18.36081		14.26286	
	249	1	1	1.81795		18.33438		14.93987	
	250	1	2	1.98050		17.53535		14.16864	
	251	1	1	2.61131		18.46042		14.09137	
	252	1	2	3.38787		18.47550		14.90154	
	253	1	1	3.81256		19.18615		15.65934	
	254	1	2	4.80621		18.67622		15.54859	
	255	1	1	4.13437		18.71215		16.44690	
	256	1	2	4.70483		18.65682		15.48194	
	257	1	1	4.84016		17.97247		16.36114	
	258	1	2	5.19000		18.74766		17.09348	
	259	1	1	4.96149		19.73045		17.58497	
	260	1	2	4.79075		20.69132		18.13925	
	261	1	1	5.49005		20.68785		17.26140	
	262	1	2	4.71039		19.89671		17.42220	
	263	1	1	4.92594		19.27169		18.32913	
	264	1	2	4.72359		19.33344		19.43135	
	265	1	1	4.67462		19.32881		18.31009	
	266	1	2	4.50456		20.17102		19.03218	
	267	1	1	3.63430		19.46237		19.02139	
	268	1	2	2.59348		19.30142		19.40924	
	269	1	1	1.77503		18.82192		18.80936	
	270	1	2	0.95206		18.26968		19.33606	
	271	1	1	0.39805		18.20400		20.30992	
	272	1	2	0.82506		17.16965		20.39620	
	273	1	1	0.85388		17.28608		19.28029	
	274	1	2	21.86604		17.16524		18.76143	
	275	1	1	20.92817		17.77270		18.65640	
	276	1	2	20.61205		18.73168		19.14637	
	277	1	1	21.68327		18.65021		18.82158	
	278	1	2	21.84500		19.72737		19.09219	
	279	1	1	0.48688		20.64788		19.10953	
	280	1	2	0.88775		20.39877		18.09125	
	281	1	1	0.91170		19.37256		17.63740	
	282	1	2	0.75965		20.47829		17.75527	
	283	1	1	1.36908		19.54057		17.84972	
	284	1	2	0.67384		18.83959		17.31594	
	285	1	1	0.53910		17.73088		17.20517	
	286	1	2	21.85247		18.45028		17.72542	
	287	1	1	0.80069		18.15928		17.20022	
	288	1	2	1.49195		18.04105		18.07648	
	289	1	1	0.53285		18.62219		18.03128	
	290	1	2	1.64802		18.70187		18.12975	
	291	1	1	2.32157		19.38944		18.70702	
	292	1	2	1.46264		19.87763		19.23952	
	293	1	1	1.59867		18.76560		19.30678	
	294	1	2	0.94188		19.27717		20.05949	
	295	1	1	0.46069		18.31425		19.74185	
	296	1	2	0.53561		17.42806		19.05724	
	297	1	1	0.18039		16.51359		19.60241	
	298	1	2	21.50557		16.81653		18.75831	
	299	1	1	0.37128		17.52453		18.85288	
	300	1	2	0.84881		18.45209		18.43908	
	301	1	1	1.10759		19.38082		17.86451	
	302	1	2	0.16355		19.08625		17.33379	
	303	1	1	21.97213		18.70716		16.29489	
	304	1	2	0.56778		17.85317		15.87591	
	305	1	1	0.60749		16.76874		16.16238	
	306	1	2	21.52360		16.95691		15.94009	
	307	1	1	0.06881		17.05974		14.96448	
	308	1	2	0.62321		17.47323		14.08056	
	309	1	1	21.82353		16.91379		14.63480	
	310	1	2	0.37227		17.27678		15.54408	
	311	1	1	1.08642		17.15439		14.68696	
	312	1	2	1.05772		17.66602		15.68549	
	313	1	1	2.05655		17.36965		16.10279	
	314	1	2	1.70204		16.30630		16.04577	
	315	1	1	2.19173		16.38321		15.03882	
	316	1	2	2.71970		15.70918		14.31318	
	317	1	1	2.30288		14.89526		14.96391	
	318	1	2	2.81457		14.24754		15.72435	
	319	1	1	2.34196		14.89343		16.51119	
	320	1	2	1.98895		15.21267		17.52761	
	321	1	1	2.13764		15.57443		18.57960	
	322	1	2	1.02777		15.48621		18.72124	
	323	1	1	1.90775		15.23385		19.37056	
	324	1	2	1.27273		16.15108		19.24771	
	325	1	1	1.32959		16.36003		18.14646	
	326	1	2	1.32767		15.36744		18.67029	
	327	1	1	0.97625		14.52089		18.02259	
	328	1	2	0.64994		14.94585		19.00879	
	329	1	1	0.21658		14.73826		17.99451	
	330	1	2	0.26747		15.33534		18.94348	
	331	1	1	21.97129		14.68329		19.80762	
	332	1	2	21.36801		15.31657		20.51094	
	333	1	1	0.28643		14.71637		20.74741	
	334	1	2	21.21338		14.51335		20.48855	
	335	1	1	20.34363		15.20803		20.34499	
	336	1	2	21.41228		15.23912		20.68658	
	337	1	1	21.14956		15.30034		19.59714	
	338	1	2	20.97517		14.22505		19.32697	
	339	1	1	21.95341		14.54333		18.87819	
	340	1	2	0.02003		14.59921		17.75922	
	341	1	1	1.00763		14.99451		17.40140	
	342	1	2	2.04944		15.19812		17.03696	
	343	1	1	1.38269		14.74353		17.81698	
	344	1	2	0.94235		14.00935		18.54274	
	345	1	1	0.26482		13.39789		19.19598	
	346	1	2	1.33365		13.27829		19.51684	
	347	1	1	0.37017		13.21150		20.08859	
	348	1	2	1.27351		13.60900		19.55416	
	349	1	1	1.00743		14.51520		20.16049	
	350	1	2	0.30398		15.00135		20.88745	
	351	1	1	21.53816		15.64063		21.40173	
	352	1	2	21.36267		15.10410		20.43169	
	353	1	1	20.32398		15.47317		20.22063	
	354	1	2	20.31518		16.55266		20.52768	
	355	1	1	20.97895		15.70401		20.21326	
	356	1	2	19.88540		15.80916		19.98362	
	357	1	1	19.94451		14.88144		20.61250	
	358	1	2	19.47588		14.15552		19.89622	
	359	1	1	19.60225		14.83314		19.01049	
	360	1	2	18.82313		14.71093		18.21194	
	361	1	1	19.69773		14.16211		18.65185	
	362	1	2	20.04936		15.18328		18.95716	
	363	1	1	19.21932		15.77090		19.43190	
	364	1	2	20.07018		16.05985		18.75946	
	365	1	1	20.75502		15.46210		18.10117	
	366	1	2	21.76401		15.18930		18.51002	
	367	1	1	0.75546		14.91920		18.96136	
	368	1	2	1.20008		15.67380		19.66317	
	369	1	1	2.31749		15.76510		19.61107	
	370	1	2	2.01597		15.60902		18.54132	
	371	1	1	2.31648		16.65858		18.28102	
	372	1	2	1.51733		17.29524		17.81663	
	373	1	1	1.56014		18.08502		17.02034	
	374	1	2	0.76160		17.52945		16.46059	
	375	1	1	0.41336		18.18594		17.30166	
	376	1	2	0.10742		18.07590		16.22744	
	377	1	1	21.08541		18.29847		16.63441	
	378	1	2	20.41154		19.19381		16.69688	
	379	1	1	20.40623		18.42466		17.51421	
	380	1	2	20.70626		18.99829		18.43104	
	381	1	1	19.98320		19.85558		18.38787	
	382	1	2	20.14355		20.58765		17.55240	
	383	1	1	20.71509		20.73567		18.50690	
	384	1	2	21.40506		20.26254		17.75874	
	385	1	1	20.56518		19.81237		18.35169	
	386	1	2	19.76253		20.56966		18.14696	
	387	1	1	19.73249		19.45458		18.02309	
	388	1	2	19.20697		19.11801		18.95593	
	389	1	1	19.07862		19.19429		20.06829	
	390	1	2	18.95963		18.07951		20.12082	
	391	1	1	19.72406		18.59865		20.75784	
	392	1	2	18.79123		19.16222		20.48977	
	393	1	1	19.07766		19.52852		21.51125	
	394	1	2	18.20757		19.74414		0.18660	
	395	1	1	17.58619		20.17869		21.35914	
	396	1	2	17.63950		21.20835		20.91574	
	397	1	1	17.58884		0.24669		20.49274	
	398	1	2	16.82910		0.67045		21.20187	
	399	1	1	15.88130		0.07315		21.26934	
	400	1	2	16.66008		21.30844		21.53080	
	401	1	1	16.57286		21.85053		20.55193	
	402	1	2	16.80188		0.91368		20.27461	
	403	1	1	16.35220		1.27919		21.23577	
	404	1	2	17.10295		2.11159		21.29165	
	405	1	1	16.84138		1.26622		21.98198	
	406	1	2	17.04052		0.59591		0.85986	
	407	1	1	17.06160		1.61168		0.38298	
	408	1	2	17.37969		2.44776		21.70517	
	409	1	1	17.15565		2.55353		0.79982	
	410	1	2	17.95465		2.18767		1.49795	
	411	1	1	16.93434		2.31495		1.04804	
	412	1	2	16.93610		2.42573		21.93118	
	413	1	1	16.65227		2.92450		0.89572	
	414	1	2	16.42653		4.00716		0.70461	
	415	1	1	15.86285		4.93968		0.97353	
	416	1	2	16.28472		5.72104		1.65993	
	417	1	1	16.59952		5.61217		0.58816	
	418	1	2	17.16377		4.88502		1.23044	
	419	1	1	17.68229		3.98334		0.80885	
	420	1	2	17.89958		4.32156		1.85672	
	421	1	1	17.38853		3.77389		2.69251	
	422	1	2	17.76641		3.92464		3.73852	
	423	1	1	17.75405		2.87523		3.34071	
	424	1	2	17.31395		2.33155		2.46301	
	425	1	1	16.97863		1.27939		2.66344	
	426	1	2	17.11468		1.99942		1.81333	
	427	1	1	18.22296		2.16824		1.86674	
	428	1	2	18.53692		3.24507		1.82797	
	429	1	1	19.27308		3.14328		0.98692	
	430	1	2	19.17627		2.93388		21.88855	
	431	1	1	19.14836		2.98657		1.00930	
	432	1	2	19.01770		1.93006		1.36477	
	433	1	1	17.94937		1.58611		1.36979	
	434	1	2	18.87862		2.16118		1.62558	
	435	1	1	17.91490		2.30966		1.06985	
	436	1	2	16.82306		2.06126		1.14623	
	437	1	1	15.86219		1.90983		1.70609	
	438	1	2	15.06470		1.63979		0.96398	
	439	1	1	14.80368		0.59257		1.27194	
	440	1	2	14.59350		0.19364		0.24416	
	441	1	1	13.75915		21.61340		0.72043	
	442	1	2	14.81194		21.45941		0.36326	
	443	1	1	13.92316		21.68032		1.01204	
	444	1	2	14.19952		0.47155		1.75851	
	445	1	1	13.13636		0.82768		1.70849	
	446	1	2	12.88484		0.63264		2.78476	
	447	1	1	13.74243		1.09350		2.22636	
	448	1	2	14.16642		1.83369		2.95574	
	449	1	1	13.51763		2.14998		3.81521	
	450	1	2	12.47352		1.78576		4.00713	
	451	1	1	13.36265		2.27368		4.48779	
	452	1	2	13.48494		1.53412		3.65248	
	453	1	1	12.39856		1.65898		3.90514	
	454	1	2	13.42364		1.55288		4.34965	
	455	1	1	12.94535		1.99264		3.43450	
	456	1	2	12.08351		2.39912		4.02750	
	457	1	1	11.62029		1.80835		3.19319	
	458	1	2	10.49812		1.82717		3.19878	
	459	1	1	9.88914		2.48441		3.87466	
	460	1	2	9.76682		1.85849		2.95114	
	461	1	1	8.70635		2.21119		2.84793	
	462	1	2	8.18095		2.73785		2.00755	
	463	1	1	7.97606		3.83923		1.93960	
	464	1	2	8.23719		3.37975		0.94948	
	465	1	1	7.54735		4.20204		0.62145	
	466	1	2	6.56773		3.70212		0.39771	
	467	1	1	5.49177		3.40299		0.28600	
	468	1	2	6.38442		3.70824		21.67801	
	469	1	1	5.68872		4.42122		0.19502	
	470	1	2	6.14411		5.25328		0.79498	
	471	1	1	5.27433		4.88197		1.39934	
	472	1	2	5.89688		4.22555		0.73512	
	473	1	1	5.95370		5.09268		0.02484	
	474	1	2	5.13028		5.64309		0.55274	
	475	1	1	4.18344		5.64723		21.95013	
	476	1	2	3.71717		4.63553		21.81342	
	477	1	1	3.92532		3.96777		0.69116	
	478	1	2	3.70689		2.92425		1.04186	
	479	1	1	4.27004		3.89488		1.06156	
	480	1	2	5.02716		3.67910		0.26164	
	481	1	1	5.74209		4.48873		0.56665	
	482	1	2	5.08408		4.42157		1.47338	
	483	1	1	5.83146		4.90737		2.15533	
	484	1	2	5.01879		4.31249		2.65064	
	485	1	1	5.66755		3.67931		3.31234	
	486	1	2	4.91165		2.84973		3.30429	
	487	1	1	3.96843		3.43426		3.47256	
	488	1	2	3.43992		4.19618		2.84026	
	489	1	1	4.40529		3.96937		3.36585	
	490	1	2	5.33841		4.10652		2.75747	
	491	1	1	6.04062		3.32902		3.16002	
	492	1	2	6.75536		3.20839		2.30314	
	493	1	1	7.10601		4.27098		2.21594	
	494	1	2	7.24979		3.29454		2.75031	
	495	1	1	7.22420		3.06362		3.84834	
	496	1	2	7.82851		2.97365		2.90687	
	497	1	1	7.00711		2.72530		2.18349	
	498	1	2	6.17899		3.32570		1.72155	
	499	1	1	5.65653		2.45310		2.19615	
	500	1	2	5.27943		2.17090		1.17742	
	501	1	1	4.63142		1.33642		1.55605	
	502	1	2	4.44949		1.94829		2.47917	
	503	1	1	3.33073		1.87600		2.42640	
	504	1	2	2.80837		1.06119		1.85819	
	505	1	1	1.81092		1.56117		1.97972	
	506	1	2	2.32587		1.67809		2.97008	
	507	1	1	3.08508		2.49316		2.83250	
	508	1	2	3.83203		1.99298		2.16055	
	509	1	1	3.50593		2.84902		2.80901	
	510	1	2	3.25334		3.60471		2.01859	
	511	1	1	4.00199		4.06055		2.71958	
	512	1	2	4.94488		3.95624		2.11982	
	513	1	1	5.58607		4.48682		2.87283	
	514	1	2	4.91823		3.59022		2.97160	
	515	1	1	5.08392		3.06988		3.95213	
	516	1	2	4.08681		2.65686		3.64417	
	517	1	1	4.79955		2.22036		2.89510	
	518	1	2	5.02107		1.12070		2.93147	
	519	1	1	4.15191		0.56446		2.49008	
	520	1	2	3.37044		1.36757		2.42710	
	521	1	1	3.43863		0.65472		1.56290	
	522	1	2	3.21029		1.70623		1.88203	
	523	1	1	3.39754		2.80100		2.04348	
	524	1	2	3.97268		3.67211		1.63115	
	525	1	1	4.42837		4.33923		0.85208	
	526	1	2	5.09231		4.29160		1.75572	
	527	1	1	5.75397		4.50956		0.87575	
	528	1	2	5.98216		5.07246		1.81953	
	529	1	1	5.12145		5.71534		1.49467	
	530	1	2	5.00022		6.77263		1.13816	
	531	1	1	4.99268		7.76306		1.66601	
	532	1	2	5.66450		8.63490		1.88556	
	533	1	1	5.88685		7.97726		1.00367	
	534	1	2	5.46500		7.34611		1.83032	
	535	1	1	4.64257		7.79144		1.20989	
	536	1	2	5.36070		7.37146		1.96324	
	537	1	1	5.30137		8.48915		1.88021	
	538	1	2	5.29825		9.52981		1.45990	
	539	1	1	4.67388		8.67951		1.84304	
	540	1	2	5.06097		8.64855		2.89606	
	541	1	1	6.04226		9.19133		2.85035	
	542	1	2	6.18542		8.53213		1.95335	
	543	1	1	7.13020		9.03244		1.61168	
	544	1	2	6.50572		9.28239		0.71323	
	545	1	1	6.58711		9.10170		1.81794	
	546	1	2	5.74853		9.23197		2.55243	
	547	1	1	5.93272		9.88673		1.65967	
	548	1	2	6.75729		9.76643		2.41151	
	549	1	1	7.57769		9.98587		3.14529	
	550	1	2	7.92176		9.81878		2.09014	
	551	1	1	7.45678		10.77244		1.72412	
	552	1	2	7.39137		9.65735		1.61479	
	553	1	1	8.32152		9.37141		2.17400	
	554	1	2	8.36408		8.74274		1.24523	
	555	1	1	8.61180		9.48177		2.05277	
	556	1	2	8.55736		10.59937		1.96539	
	557	1	1	8.43384		10.27851		0.89701	
	558	1	2	9.38253		9.67885		0.90434	
	559	1	1	8.55582		9.53528		0.15896	
	560	1	2	8.59882		9.24503		1.24227	
	561	1	1	8.03619		10.12778		0.83747	
	562	1	2	8.73616		10.03065		21.96555	
	563	1	1	8.13418		10.53702		21.16503	
	564	1	2	9.02268		11.08342		20.75072	
	565	1	1	9.19311		10.48955		19.81375	
	566	1	2	8.93445		9.40462		19.93900	
	567	1	1	8.18601		10.15606		20.30619	
	568	1	2	8.56133		9.13473		20.58125	
	569	1	1	9.24206		8.74977		21.38628	
	570	1	2	8.38103		8.86155		0.09746	
	571	1	1	8.13703		9.02813		21.01471	
	572	1	2	7.53979		8.15951		20.62940	
	573	1	1	8.58260		8.27393		20.23052	
	574	1	2	8.76893		8.57815		21.29466	
	575	1	1	8.93080		8.03552		0.26367	
	576	1	2	8.33485		7.22916		21.75941	
	577	1	1	7.74566		7.96621		21.15175	
	578	1	2	7.91090		8.55922		0.09020	
	579	1	1	8.72618		7.81424		21.89027	
	580	1	2	8.03850		6.94635		21.70725	
	581	1	1	8.43297		6.79869		20.66694	
	582	1	2	9.28211		6.45618		21.31603	
	583	1	1	10.24023		6.82137		21.77241	
	584	1	2	9.23241		7.30911		21.69462	
	585	1	1	9.94787		8.09819		0.04832	
	586	1	2	9.12045		8.71396		0.49087	
	587	1	1	10.13396		8.37714		0.83583	
	588	1	2	9.67093		9.39893		0.80139	
	589	1	1	9.47254		9.91656		21.82551	
	590	1	2	8.61274		10.29804		0.43778	
	591	1	1	7.91502		11.17545		0.49235	
	592	1	2	9.01035		11.07501		0.26919	
	593	1	1	8.90531		12.18650		0.15426	
	594	1	2	9.68328		12.97097		21.95673	
	595	1	1	9.78706		13.69927		21.10911	
	596	1	2	9.86855		13.35657		20.04349	
	597	1	1	10.21505		14.41671		19.91822	
	598	1	2	10.56781		15.01092		19.03385	
	599	1	1	11.48838		14.85498		19.65665	
	600	1	2	11.74539		13.78672		19.42771	
	601	1	1	12.25704		13.95482		20.41240	
	602	1	2	12.35916		14.31072		21.47190	
	603	1	1	11.79612		15.13186		21.98995	
	604	1	2	11.93123		15.25000		1.09785	
	605	1	1	12.42993		14.45352		0.48420	
	606	1	2	11.58620		14.42004		1.22355	
	607	1	1	10.83776		13.58782		1.14053	
	608	1	2	10.10160		13.36328		0.32364	
	609	1	1	11.10449		13.83966		0.15961	
	610	1	2	11.66580		13.22241		21.40889	
	611	1	1	12.72134		13.49979		21.14711	
	612	1	2	12.10456		13.93631		20.31725	
	613	1	1	12.95828		13.78683		19.60419	
	614	1	2	13.65018		13.63269		18.73403	
	615	1	1	12.58677		13.67075		19.09091	
	616	1	2	13.14294		12.70720		18.94292	
	617	1	1	13.28262		12.33485		19.99244	
	618	1	2	13.57335		13.40925		20.13662	
	619	1	1	12.77041		13.60228		19.37656	
	620	1	2	12.00976		14.35607		19.71251	
	621	1	1	12.66874		15.10129		19.19286	
	622	1	2	13.18301		14.23930		18.69073	
	623	1	1	14.11734		13.86774		18.19211	
	624	1	2	14.86709		13.95164		19.02305	
	625	1	1	15.70651		14.67979		18.86548	
	626	1	2	16.02189		14.60727		19.94015	
	627	1	1	15.05893		14.82183		19.40505	
	628	1	2	15.85337		14.50877		20.13341	
	629	1	1	15.61363		13.62916		20.78798	
	630	1	2	16.57603		14.19167		20.91841	
	631	1	1	17.38800		14.44931		20.18768	
	632	1	2	17.23352		13.41403		19.78276	
	633	1	1	16.29708		12.93973		19.38555	
	634	1	2	15.28024		12.85005		18.91904	
	635	1	1	16.10834		12.28435		18.41518	
	636	1	2	15.35389		12.01664		17.62856	
	637	1	1	15.35486		12.07043		16.50751	
	638	1	2	15.06937		12.20891		15.43096	
	639	1	1	16.13700		12.12375		15.09546	
	640	1	2	16.89216		11.42735		15.54757	
	641	1	1	16.81025		10.62170		16.32466	
	642	1	2	17.66648		10.48852		15.61138	
	643	1	1	18.05873		11.38639		15.06401	
	644	1	2	17.68801		10.42184		15.50201	
	645	1	1	17.99964		11.47328		15.26327	
	646	1	2	17.81317		12.44630		15.79063	
	647	1	1	18.92442		12.56397		15.68611	
	648	1	2	18.53465		12.12560		16.64296	
	649	1	1	18.58072		12.68345		17.61575	
	650	1	2	19.21513		13.23930		18.35616	
	651	1	1	19.82550		12.84227		19.21025	
	652	1	2	19.97860		12.31277		18.23257	
	653	1	1	20.56598		12.92969		17.50180	
	654	1	2	21.26104		12.04852		17.51048	
	655	1	1	21.51147		13.13570		17.38810	
	656	1	2	21.95529		12.12011		17.21133	
	657	1	1	0.88862		11.61583		17.57773	
	658	1	2	1.06143		11.35913		18.65656	
	659	1	1	2.15724		11.11839		18.62649	
	660	1	2	1.08673		11.33754		18.88269	
	661	1	1	1.37090		11.04654		17.83665	
	662	1	2	0.47609		11.58149		17.42098	
	663	1	1	21.52055		12.17022		17.42159	
	664	1	2	21.24479		11.08683		17.52087	
	665	1	1	20.79354		11.37859		18.50622	
	666	1	2	20.16348		10.98279		17.66597	
	667	1	1	20.83862		10.09040		17.75246	
	668	1	2	21.23608		10.76568		18.55599	
	669	1	1	21.27122		11.83217		18.90388	
	670	1	2	20.23386		12.09177		18.56309	
	671	1	1	20.54116		12.17736		19.63914	
	672	1	2	19.43763		12.06357		19.46907	
	673	1	1	18.48801		11.48166		19.33030	
	674	1	2	18.76927		12.22531		18.53813	
	675	1	1	18.22214		12.48192		19.48389	
	676	1	2	18.24548		11.61508		18.77136	
	677	1	1	18.04582		11.71156		19.87157	
	678	1	2	18.76932		12.05130		20.65946	
	679	1	1	18.39305		13.10834		20.63215	
	680	1	2	18.54973		13.85059		19.80501	
	681	1	1	17.52568		13.41631		19.95456	
	682	1	2	17.74087		13.79488		18.92014	
	683	1	1	17.83411		14.28280		17.91371	
	684	1	2	16.93572		14.81211		18.32890	
	685	1	1	17.29348		14.06940		19.09050	
	686	1	2	17.81564		15.05762		18.98849	
	687	1	1	18.46895		15.19729		18.08664	
	688	1	2	17.57835		15.61393		17.54545	
	689	1	1	18.26121		16.24149		18.17752	
	690	1	2	18.31283		16.13463		17.06147	
	691	1	1	18.38193		16.36108		18.15855	
	692	1	2	18.06570		17.05723		17.33695	
	693	1	1	18.05337		15.94985		17.15475	
	694	1	2	17.81207		15.69226		16.08935	
	695	1	1	17.08449		15.64865		16.94280	
	696	1	2	17.20481		16.60638		17.51544	
	697	1	1	17.38304		17.50317		18.16633	
	698	1	2	17.48678		16.85996		19.08020	
	699	1	1	18.35709		16.49722		18.47142	
	700	1	2	17.45596		15.90591		18.78440	
	701	1	1	18.00019		16.71170		18.22390	
	702	1	2	18.78397		17.48023		18.45776	
	703	1	1	18.45319		17.38957		19.52641	
	704	1	2	17.76324		18.23744		19.78083	
	705	1	1	17.43509		18.64955		18.78980	
	706	1	2	18.43162		18.92457		19.22678	
	707	1	1	17.48332		19.32490		18.77944	
	708	1	2	16.66367		19.94228		19.23406	
	709	1	1	15.83122		20.63245		19.53463	
	710	1	2	15.05170		21.04233		20.23032	
	711	1	1	14.18726		20.52123		19.73958	
	712	1	2	14.66050		20.91416		20.67835	
	713	1	1	14.83603		21.85964		21.25706	
	714	1	2	14.16103		20.96297		21.25827	
	715	1	1	14.57412		20.96390		20.21472	
	716	1	2	14.89034		19.88819		20.26468	
	717	1	1	14.82249		19.87850		19.14444	
	718	1	2	14.91972		20.21066		18.07679	
	719	1	1	15.22077		19.91456		19.11667	
	720	1	2	14.96835		19.18579		18.30130	
	721	1	1	14.43283		19.55965		17.38856	
	722	1	2	14.35147		20.36642		18.16454	
	723	1	1	14.33304		21.46419		18.39737	
	724	1	2	13.49561		0.07793		18.82361	
	725	1	1	14.37542		0.23175		19.50326	
	726	1	2	14.72363		21.18659		19.71784	
	727	1	1	15.37183		20.93583		18.83659	
	728	1	2	15.74951		21.81637		19.42111	
	729	1	1	15.53295		0.19006		20.45702	
	730	1	2	16.07876		21.45616		19.80654	
	731	1	1	15.70353		20.61492		19.16531	
	732	1	2	14.58736		20.62549		19.04828	
	733	1	1	13.81202		20.60281		19.85944	
	734	1	2	13.25940		20.12641		20.71226	
	735	1	1	14.30706		20.24630		21.09657	
	736	1	2	15.42639		20.29484		21.03039	
	737	1	1	14.67146		20.32205		20.20034	
	738	1	2	14.80916		20.50904		19.10229	
	739	1	1	14.49145		21.25382		19.87947	
	740	1	2	13.37854		21.16013		19.76856	
	741	1	1	14.42527		20.85081		19.50715	
	742	1	2	13.45488		21.35925		19.26326	
	743	1	1	13.59933		0.40770		19.63680	
	744	1	2	14.69824		0.62696		19.57380	
	745	1	1	13.84711		21.94902		19.84879	
	746	1	2	13.56673		21.50535		20.84085	
	747	1	1	12.75319		21.29343		21.58442	