#-----------------------------------------------------------------------------------           
# NANOPOLY - POLYMER NANOCOMPOSITE STRUCTURAL DATA FILE                                        
#-----------------------------------------------------------------------------------           
# FILENAME:  int_structure.in                                                                  
# DATE: 2021-09-23                                                                                
#-----------------------------------------------------------------------------------           
                                                                                               
8000 atoms                                                             
7990 bonds                                                             
                                                                                               
2 atom types                                      
1 bond types                                            
                                                                                    
0.0000 22.0000 xlo xhi            
0.0000 22.0000 ylo yhi            
0.0000 22.0000 zlo zhi            
                                                                                    
                                                                                    
# Types have been converted numerically as follows:                                 
# 1 mainbead
# 2 subbead
                                                                                    
Masses                                                                              
                                                                                    
1	0.5
2	1.0

Atoms                                                                               

	1	1	1	7.95104		16.33659		4.44166	
	2	1	2	8.20272		17.11969		3.67808	
	3	1	1	8.35875		16.02223		3.85380	
	4	1	2	8.51059		15.49785		4.83443	
	5	1	1	9.35468		14.92279		5.29968	
	6	1	2	9.79534		15.94693		5.17081	
	7	1	1	9.78114		17.03844		5.43167	
	8	1	2	10.80960		16.66318		5.18447	
	9	1	1	9.80727		16.25911		4.88161	
	10	1	2	10.21289		16.58151		3.88603	
	11	1	1	9.47532		16.61733		3.04084	
	12	1	2	9.09578		16.22811		4.02273	
	13	1	1	9.13878		17.31561		3.74860	
	14	1	2	8.19797		16.87057		4.16868	
	15	1	1	7.23586		17.06075		4.71441	
	16	1	2	6.64437		17.92001		4.30034	
	17	1	1	7.12044		17.21694		3.56638	
	18	1	2	7.24003		17.81690		2.62543	
	19	1	1	7.96401		18.60823		2.29481	
	20	1	2	7.18593		18.08513		1.67788	
	21	1	1	6.24372		18.63488		1.41394	
	22	1	2	5.83081		19.30517		0.61402	
	23	1	1	5.05786		18.82867		21.95436	
	24	1	2	4.35001		17.96346		0.05437	
	25	1	1	4.46397		17.51911		1.07868	
	26	1	2	3.55451		17.17203		0.52004	
	27	1	1	4.49211		17.68974		0.85549	
	28	1	2	4.71237		17.32325		1.89319	
	29	1	1	5.63526		16.86524		2.33831	
	30	1	2	5.57233		15.74707		2.41172	
	31	1	1	5.81378		15.24674		3.38693	
	32	1	2	6.86866		15.08109		3.73252	
	33	1	1	7.78427		15.66756		4.01063	
	34	1	2	8.83065		15.67685		3.60486	
	35	1	1	7.81867		15.86166		3.15609	
	36	1	2	7.30044		15.28188		3.96538	
	37	1	1	7.48490		14.20405		3.71256	
	38	1	2	7.81504		14.09123		2.64582	
	39	1	1	7.84740		13.99114		3.76322	
	40	1	2	8.87148		13.71011		3.39999	
	41	1	1	8.15873		14.17141		2.66593	
	42	1	2	8.66350		13.39136		3.29551	
	43	1	1	8.48312		12.53097		3.99325	
	44	1	2	8.91433		13.42651		3.47199	
	45	1	1	8.75698		14.12757		2.60978	
	46	1	2	7.91406		14.08605		3.34965	
	47	1	1	8.28517		13.52682		2.45011	
	48	1	2	8.56687		13.89415		1.42768	
	49	1	1	9.37589		13.81193		2.20122	
	50	1	2	8.97809		12.78921		2.43665	
	51	1	1	9.74949		12.18965		2.98903	
	52	1	2	9.89095		12.92304		3.82675	
	53	1	1	10.09324		13.88871		4.36175	
	54	1	2	9.94984		14.84485		4.93172	
	55	1	1	10.22330		15.75458		4.33399	
	56	1	2	9.78830		16.33529		5.19026	
	57	1	1	9.12274		16.56979		6.06300	
	58	1	2	8.72887		16.92694		5.07459	
	59	1	1	7.64249		17.20816		5.05629	
	60	1	2	7.22600		17.37860		4.02812	
	61	1	1	6.15957		17.12280		4.26673	
	62	1	2	5.63183		17.47960		3.34270	
	63	1	1	4.88067		16.70035		3.04579	
	64	1	2	3.78113		16.48964		3.12505	
	65	1	1	2.80432		16.69100		2.61033	
	66	1	2	2.15014		16.85971		1.71410	
	67	1	1	1.24141		16.21217		1.83471	
	68	1	2	0.23504		15.72596		1.73240	
	69	1	1	0.82517		15.49240		2.65806	
	70	1	2	1.43464		14.57643		2.43624	
	71	1	1	2.33198		13.90256		2.45409	
	72	1	2	1.29609		13.51527		2.26284	
	73	1	1	1.74006		13.18966		1.28482	
	74	1	2	0.79369		13.23291		0.68301	
	75	1	1	0.67560		12.58087		1.58885	
	76	1	2	0.15136		11.61334		1.80949	
	77	1	1	21.89687		11.24626		0.77986	
	78	1	2	20.94166		11.83363		0.82684	
	79	1	1	20.79849		12.43741		1.76204	
	80	1	2	21.31993		13.09562		1.01739	
	81	1	1	0.13994		13.82184		0.77279	
	82	1	2	0.46792		14.44698		21.90028	
	83	1	1	1.10868		13.52554		21.90150	
	84	1	2	1.56582		12.57862		21.50904	
	85	1	1	2.20739		13.24979		20.87851	
	86	1	2	1.57963		13.78773		20.11944	
	87	1	1	0.67974		13.52639		20.73714	
	88	1	2	0.91765		13.31385		21.81319	
	89	1	1	1.12706		13.72368		0.83683	
	90	1	2	1.74846		13.03838		0.20131	
	91	1	1	1.59582		13.92134		0.87713	
	92	1	2	2.53014		14.10139		0.28191	
	93	1	1	2.28598		13.04289		21.99972	
	94	1	2	1.19580		13.11825		0.25558	
	95	1	1	1.32539		14.21801		0.43830	
	96	1	2	1.80727		13.31001		21.98777	
	97	1	1	2.64624		13.55553		21.28385	
	98	1	2	3.12020		14.45615		21.75702	
	99	1	1	2.44237		15.34771		21.82996	
	100	1	2	1.71352		16.04740		0.31868	
	101	1	1	1.76184		15.23332		21.54760	
	102	1	2	1.96289		16.33694		21.51250	
	103	1	1	2.53243		16.39239		0.47801	
	104	1	2	2.18160		17.09260		21.67409	
	105	1	1	2.24361		18.20486		21.53739	
	106	1	2	1.17417		18.22990		21.87698	
	107	1	1	2.16118		18.74668		0.01261	
	108	1	2	1.78388		18.57902		1.05625	
	109	1	1	2.56433		17.77485		1.11836	
	110	1	2	3.25735		17.16144		1.75324	
	111	1	1	3.36146		17.14687		0.63584	
	112	1	2	3.14053		16.04999		0.54808	
	113	1	1	3.13445		16.83826		21.74918	
	114	1	2	2.25681		16.13997		21.79151	
	115	1	1	3.19346		15.84849		21.24618	
	116	1	2	3.30308		16.91931		21.56397	
	117	1	1	3.52473		16.10779		20.82103	
	118	1	2	4.27244		15.36570		20.43388	
	119	1	1	4.95888		15.02520		19.61382	
	120	1	2	4.45950		15.54040		18.75079	
	121	1	1	5.04403		15.99644		17.90816	
	122	1	2	5.51734		15.16729		18.49819	
	123	1	1	5.05892		14.18715		18.79623	
	124	1	2	4.68559		13.89586		19.81378	
	125	1	1	3.99072		13.02942		19.65228	
	126	1	2	2.95172		13.10011		19.23380	
	127	1	1	2.70496		12.56307		18.27968	
	128	1	2	2.22674		12.38988		17.27920	
	129	1	1	1.24103		11.99678		16.91383	
	130	1	2	0.99582		12.26666		17.97528	
	131	1	1	0.33602		13.16863		17.87151	
	132	1	2	0.40983		14.28294		17.98339	
	133	1	1	21.57204		13.65581		18.38893	
	134	1	2	0.07862		12.66564		18.23868	
	135	1	1	0.29072		11.69804		17.71104	
	136	1	2	21.67535		12.62583		17.85300	
	137	1	1	21.68050		11.66526		18.43345	
	138	1	2	20.71932		12.22777		18.57262	
	139	1	1	19.96922		11.60556		18.01599	
	140	1	2	20.01137		10.75074		18.74204	
	141	1	1	20.70955		10.18328		19.41300	
	142	1	2	20.09043		10.38971		20.32609	
	143	1	1	19.81539		9.49021		20.93838	
	144	1	2	19.70832		9.47101		0.05543	
	145	1	1	19.21842		9.67210		21.06588	
	146	1	2	19.60953		9.05166		20.21633	
	147	1	1	19.87371		8.10639		20.76070	
	148	1	2	19.32634		8.78865		20.05745	
	149	1	1	19.84202		8.68668		21.04908	
	150	1	2	19.64897		9.78894		20.96309	
	151	1	1	19.81441		9.74999		0.07249	
	152	1	2	19.89846		8.65211		0.28986	
	153	1	1	20.17882		8.13290		1.24456	
	154	1	2	20.21430		7.04639		1.52367	
	155	1	1	19.62328		7.78835		0.92381	
	156	1	2	19.30380		7.15959		0.05075	
	157	1	1	18.48178		6.98831		21.30604	
	158	1	2	19.16058		6.21559		20.85685	
	159	1	1	18.30899		6.48172		21.53774	
	160	1	2	19.01249		6.05726		20.77316	
	161	1	1	19.43690		5.58802		21.70017	
	162	1	2	18.34483		5.43199		21.49356	
	163	1	1	17.28883		5.51645		21.12289	
	164	1	2	16.23098		5.51898		20.74794	
	165	1	1	16.92174		6.27006		20.28064	
	166	1	2	17.52929		6.74438		21.09646	
	167	1	1	18.19011		7.31441		20.39075	
	168	1	2	19.29402		7.22022		20.21146	
	169	1	1	18.23569		7.58964		20.26727	
	170	1	2	17.71755		8.43979		20.78537	
	171	1	1	17.47995		9.46620		21.17226	
	172	1	2	16.90714		9.86395		0.05165	
	173	1	1	17.65158		9.10526		0.41199	
	174	1	2	17.88966		8.71206		21.38809	
	175	1	1	17.57980		8.24543		0.36066	
	176	1	2	17.97894		9.27227		0.14633	
	177	1	1	17.28265		9.01820		0.98911	
	178	1	2	17.42670		8.81309		21.89512	
	179	1	1	16.84865		9.77271		21.82703	
	180	1	2	16.73348		10.88216		21.70249	
	181	1	1	16.64111		9.76920		21.59094	
	182	1	2	17.38863		10.33075		20.97004	
	183	1	1	17.80513		10.88209		20.08562	
	184	1	2	17.55363		10.05421		20.80047	
	185	1	1	17.59379		9.20991		21.53883	
	186	1	2	16.84979		8.48842		21.10805	
	187	1	1	15.80490		8.07892		21.12087	
	188	1	2	16.11110		7.69172		0.12882	
	189	1	1	15.78008		7.02931		21.28544	
	190	1	2	16.00517		6.10317		21.87810	
	191	1	1	15.00414		6.49001		21.54956	
	192	1	2	16.05341		6.80031		21.29978	
	193	1	1	16.76107		6.43070		20.51094	
	194	1	2	15.84914		5.90945		20.11555	
	195	1	1	16.72494		6.22492		20.74252	
	196	1	2	16.18733		6.57317		19.82093	
	197	1	1	15.73298		7.51472		20.22923	
	198	1	2	14.94249		7.87902		19.52068	
	199	1	1	15.07246		7.20828		18.63025	
	200	1	2	15.28900		6.97942		17.55304	
	201	1	1	15.32756		8.08346		17.35489	
	202	1	2	15.37443		8.65025		18.32247	
	203	1	1	15.10439		9.14709		17.35300	
	204	1	2	15.23443		9.53093		16.30638	
	205	1	1	14.47789		9.34118		17.11340	
	206	1	2	15.21512		9.00531		16.33666	
	207	1	1	16.00409		8.20776		16.30369	
	208	1	2	15.75433		8.28962		17.39482	
	209	1	1	14.98365		7.55712		17.03546	
	210	1	2	15.98038		7.19239		16.67059	
	211	1	1	16.28813		6.22453		17.14827	
	212	1	2	16.86751		6.12291		18.10412	
	213	1	1	17.36638		5.26761		17.57568	
	214	1	2	18.01494		5.20985		18.48984	
	215	1	1	17.55824		5.41086		17.48452	
	216	1	2	17.82747		4.36391		17.78627	
	217	1	1	18.52531		3.48929		17.69840	
	218	1	2	18.86398		3.81926		18.71627	
	219	1	1	18.32160		4.79578		18.60731	
	220	1	2	17.40275		5.39206		18.85186	
	221	1	1	17.71878		4.73067		19.70176	
	222	1	2	18.77438		5.11032		19.66669	
	223	1	1	19.44391		4.28811		19.29882	
	224	1	2	20.15114		4.91104		18.68937	
	225	1	1	20.92008		4.94873		17.87269	
	226	1	2	21.85033		4.83738		17.25473	
	227	1	1	21.18220		4.84019		16.35293	
	228	1	2	20.34074		4.13653		16.59057	
	229	1	1	20.99544		5.01225		16.33733	
	230	1	2	19.95734		5.34574		16.07130	
	231	1	1	20.18400		4.54372		16.82298	
	232	1	2	19.89438		4.76030		17.88546	
	233	1	1	19.27319		3.98350		17.36552	
	234	1	2	20.07430		3.25042		17.08186	
	235	1	1	20.26855		4.31970		17.36210	
	236	1	2	19.19718		4.17492		17.66354	
	237	1	1	19.31330		4.97031		18.44682	
	238	1	2	19.73160		4.42099		17.56199	
	239	1	1	19.61096		4.67776		16.47610	
	240	1	2	19.03168		5.10971		15.61732	
	241	1	1	19.88416		4.38133		15.66621	
	242	1	2	20.13787		5.47443		15.64567	
	243	1	1	19.94007		5.70710		14.56567	
	244	1	2	20.76192		6.34910		14.15087	
	245	1	1	20.52966		6.08962		15.21782	
	246	1	2	20.45321		7.17501		15.49302	
	247	1	1	20.89692		7.61325		14.55990	
	248	1	2	20.39124		7.30489		13.60656	
	249	1	1	20.00541		6.29154		13.89619	
	250	1	2	19.26761		5.78410		14.57281	
	251	1	1	19.43497		5.70855		15.68003	
	252	1	2	19.50753		6.58021		14.97675	
	253	1	1	19.85335		6.78042		13.92795	
	254	1	2	19.82077		7.01901		15.02415	
	255	1	1	19.87614		6.34306		15.91840	
	256	1	2	20.93768		6.55821		15.62434	
	257	1	1	19.93492		6.17238		15.29994	
	258	1	2	20.71504		6.56893		16.00265	
	259	1	1	21.76206		6.96655		15.92981	
	260	1	2	21.50734		7.79360		16.64448	
	261	1	1	21.19821		8.75205		16.14904	
	262	1	2	20.56982		9.24102		15.35804	
	263	1	1	21.30325		9.53635		14.56148	
	264	1	2	21.55872		9.06382		15.54692	
	265	1	1	21.00258		8.59411		14.69268	
	266	1	2	19.97171		8.36713		15.07403	
	267	1	1	19.40324		9.04926		14.38761	
	268	1	2	19.71239		9.12932		13.31166	
	269	1	1	19.62370		10.15002		12.85347	
	270	1	2	19.35456		10.05746		13.93912	
	271	1	1	20.13997		9.85831		13.16251	
	272	1	2	20.17749		8.74978		13.33402	
	273	1	1	19.43777		8.88559		12.50094	
	274	1	2	18.88290		7.92558		12.32730	
	275	1	1	19.58798		8.46695		13.01244	
	276	1	2	19.44659		7.73718		13.85333	
	277	1	1	18.35050		7.61185		14.05955	
	278	1	2	18.67002		7.53257		12.98657	
	279	1	1	19.62534		7.55076		13.57537	
	280	1	2	19.86551		6.45444		13.56900	
	281	1	1	18.88478		5.94772		13.77165	
	282	1	2	17.81454		6.22279		13.96803	
	283	1	1	18.31317		7.21641		14.12209	
	284	1	2	17.63595		6.37758		14.43417	
	285	1	1	18.37758		7.16066		14.74470	
	286	1	2	18.38802		8.17507		15.22480	
	287	1	1	18.81769		7.65967		16.12446	
	288	1	2	18.06854		6.83195		16.00911	
	289	1	1	19.18695		6.77309		16.08224	
	290	1	2	18.47734		7.04970		16.90661	
	291	1	1	18.21784		6.23770		16.17656	
	292	1	2	18.22143		7.34794		16.34092	
	293	1	1	18.66836		6.35625		16.06441	
	294	1	2	18.50322		6.25150		14.95924	
	295	1	1	18.62821		6.63760		13.91284	
	296	1	2	18.46320		7.74774		13.91418	
	297	1	1	18.33990		6.66524		14.18371	
	298	1	2	18.79336		6.89241		13.18251	
	299	1	1	18.25226		7.84448		12.93672	
	300	1	2	17.36144		8.35705		12.48577	
	301	1	1	16.27626		8.64344		12.48945	
	302	1	2	16.07002		9.09776		13.49479	
	303	1	1	15.61674		8.30450		12.84292	
	304	1	2	15.08217		7.76752		13.67089	
	305	1	1	14.52840		7.09312		12.96507	
	306	1	2	13.57811		7.31279		13.52035	
	307	1	1	12.98009		7.42734		12.57753	
	308	1	2	13.22399		6.65348		11.80209	
	309	1	1	13.07983		7.70757		11.44466	
	310	1	2	13.20908		7.92183		12.53876	
	311	1	1	13.30035		9.03356		12.41478	
	312	1	2	12.51765		8.66609		11.69926	
	313	1	1	11.90538		9.08868		10.85891	
	314	1	2	12.19788		8.31919		10.09604	
	315	1	1	12.85286		7.75026		10.80805	
	316	1	2	13.33867		6.73869		10.78923	
	317	1	1	12.44813		7.19067		11.30138	
	318	1	2	12.72716		8.06362		10.65351	
	319	1	1	12.90799		8.98506		11.26824	
	320	1	2	13.50077		8.62310		12.14986	
	321	1	1	13.59916		8.61922		11.03185	
	322	1	2	13.13713		9.59193		10.71560	
	323	1	1	12.27999		9.90049		11.37115	
	324	1	2	11.19948		9.69609		11.14673	
	325	1	1	11.27883		9.43637		10.05774	
	326	1	2	12.35816		9.15060		10.17181	
	327	1	1	11.95716		9.74043		11.03838	
	328	1	2	10.89823		9.91758		11.36540	
	329	1	1	11.81561		9.96024		10.72022	
	330	1	2	12.12133		9.46108		9.76261	
	331	1	1	11.81570		10.43757		9.30140	
	332	1	2	11.56254		11.53098		9.29942	
	333	1	1	11.52611		11.43626		8.18168	
	334	1	2	11.66324		11.89964		7.16870	
	335	1	1	11.60738		10.81537		6.88431	
	336	1	2	11.50110		9.80015		7.35088	
	337	1	1	11.63719		10.42694		8.27189	
	338	1	2	11.85958		9.32752		8.31001	
	339	1	1	11.69663		8.98121		7.25494	
	340	1	2	12.76160		9.32954		7.31938	
	341	1	1	12.20165		8.89433		8.18925	
	342	1	2	12.33252		8.82872		7.07650	
	343	1	1	12.80388		8.85965		6.05841	
	344	1	2	12.94812		9.16202		7.12958	
	345	1	1	12.75343		9.13439		6.02460	
	346	1	2	13.15859		10.15471		6.25792	
	347	1	1	13.88558		11.00930		6.28634	
	348	1	2	13.61091		9.94935		6.03996	
	349	1	1	12.51584		10.00787		6.27881	
	350	1	2	13.04134		9.34274		7.01440	
	351	1	1	12.27889		9.03914		7.77999	
	352	1	2	12.60354		8.15870		7.16429	
	353	1	1	13.59212		7.71759		7.46056	
	354	1	2	13.41321		6.85879		6.76049	
	355	1	1	13.44209		7.90209		6.34778	
	356	1	2	12.72594		8.63129		5.88406	
	357	1	1	13.49370		9.28610		5.39272	
	358	1	2	13.38516		8.67738		4.45606	
	359	1	1	13.47440		8.09282		3.50213	
	360	1	2	13.10500		8.53502		4.46528	
	361	1	1	12.28813		9.19292		4.06586	
	362	1	2	11.62240		8.32027		3.83147	
	363	1	1	11.48246		9.43383		3.83981	
	364	1	2	11.24307		10.36745		4.41485	
	365	1	1	11.92575		10.70168		3.58909	
	366	1	2	12.30883		10.29858		4.56398	
	367	1	1	12.15933		9.25179		4.94018	
	368	1	2	11.99529		10.10207		5.65416	
	369	1	1	11.41995		9.38894		5.00602	
	370	1	2	11.95459		8.48628		4.60724	
	371	1	1	11.78070		9.55957		4.88556	
	372	1	2	10.85165		10.17860		4.77011	
	373	1	1	10.64038		9.39882		5.54919	
	374	1	2	10.22755		9.18094		4.52853	
	375	1	1	9.62651		8.34581		4.08023	
	376	1	2	10.60701		8.58248		4.57243	
	377	1	1	9.80278		8.95520		5.26086	
	378	1	2	9.59354		9.96600		5.70148	
	379	1	1	9.84497		10.99344		5.32624	
	380	1	2	10.56337		11.85566		5.31539	
	381	1	1	10.70136		10.81761		4.91159	
	382	1	2	10.53717		11.91060		5.10671	
	383	1	1	11.00517		12.79681		5.61193	
	384	1	2	10.27731		13.56782		5.24395	
	385	1	1	9.54459		13.57762		4.39385	
	386	1	2	10.03039		13.03110		3.54241	
	387	1	1	10.47117		12.06284		3.89995	
	388	1	2	10.23778		12.00004		4.99595	
	389	1	1	9.87130		11.04194		4.54054	
	390	1	2	10.61432		11.33625		3.75253	
	391	1	1	10.85919		12.16091		3.03168	
	392	1	2	11.04792		13.25377		3.20397	
	393	1	1	11.72545		13.52714		4.05596	
	394	1	2	11.91147		14.27671		4.87032	
	395	1	1	11.96354		15.39618		4.93138	
	396	1	2	11.99242		14.43784		5.51482	
	397	1	1	13.10384		14.31630		5.41670	
	398	1	2	12.16288		14.92695		5.45343	
	399	1	1	12.88380		15.65201		4.99062	
	400	1	2	13.51553		14.86088		5.47505	
	401	1	1	13.41993		15.19802		6.54128	
	402	1	2	14.33899		14.56958		6.68283	
	403	1	1	14.59456		13.64760		7.26959	
	404	1	2	15.62519		13.98901		6.98518	
	405	1	1	16.31136		13.19793		7.38894	
	406	1	2	17.19223		12.85776		6.78231	
	407	1	1	16.59905		12.02065		7.23734	
	408	1	2	16.55105		12.58428		8.20670	
	409	1	1	17.23859		12.12268		7.44916	
	410	1	2	18.08994		12.61706		6.91023	
	411	1	1	17.96643		12.82547		8.00612	
	412	1	2	18.03532		12.13640		7.12289	
	413	1	1	17.60213		13.08862		6.71635	
	414	1	2	16.67641		12.61564		6.29329	
	415	1	1	16.43817		13.71121		6.24211	
	416	1	2	16.77158		12.66229		6.02242	
	417	1	1	17.84778		12.97426		6.08662	
	418	1	2	17.13315		13.83876		6.04657	
	419	1	1	16.61404		13.17093		6.78426	
	420	1	2	17.65647		13.50608		6.53796	
	421	1	1	16.91156		13.23112		7.33114	
	422	1	2	17.97623		13.52550		7.52977	
	423	1	1	17.06253		12.99924		7.91427	
	424	1	2	17.43349		12.36083		8.75952	
	425	1	1	16.36744		12.69932		8.85232	
	426	1	2	16.51860		12.64841		9.96327	
	427	1	1	17.55602		13.07266		9.90465	
	428	1	2	16.91504		12.67771		10.73700	
	429	1	1	17.30911		12.45237		9.71056	
	430	1	2	16.88959		11.73803		8.95334	
	431	1	1	16.67891		10.86594		8.27902	
	432	1	2	17.48081		11.65097		8.29750	
	433	1	1	18.16590		11.77760		9.17742	
	434	1	2	18.24767		11.79899		10.29657	
	435	1	1	17.77860		11.94631		11.30549	
	436	1	2	17.11395		11.11174		10.95711	
	437	1	1	18.05555		10.99172		11.55597	
	438	1	2	18.72284		10.35343		10.91804	
	439	1	1	18.48955		9.29736		11.21794	
	440	1	2	17.44119		9.17391		11.59917	
	441	1	1	16.99917		8.21448		11.22000	
	442	1	2	16.80806		8.97218		10.41439	
	443	1	1	17.70972		9.50442		10.81857	
	444	1	2	18.44351		8.85425		11.36490	
	445	1	1	18.00417		7.82148		11.37047	
	446	1	2	19.10825		7.71052		11.20212	
	447	1	1	19.03897		8.82232		11.06522	
	448	1	2	18.46554		7.88365		11.28819	
	449	1	1	17.66926		8.12542		12.04127	
	450	1	2	17.69869		8.33652		13.14319	
	451	1	1	17.65345		7.36140		12.58935	
	452	1	2	17.55888		6.72527		13.50917	
	453	1	1	16.69861		6.00488		13.53417	
	454	1	2	15.76775		5.40617		13.34791	
	455	1	1	16.30368		4.55552		13.84672	
	456	1	2	16.24336		5.57267		13.37617	
	457	1	1	16.27676		6.69372		13.41827	
	458	1	2	17.26973		6.17524		13.34866	
	459	1	1	18.05706		6.37118		12.57318	
	460	1	2	19.14861		6.58498		12.72299	
	461	1	1	19.33441		6.10117		11.72747	
	462	1	2	19.18890		7.08658		11.21032	
	463	1	1	19.84073		7.98299		11.38699	
	464	1	2	18.88772		7.66993		11.89038	
	465	1	1	18.89665		8.03061		10.82761	
	466	1	2	19.16550		8.37358		9.79333	
	467	1	1	19.20836		9.33699		9.21916	
	468	1	2	19.69174		8.85408		8.32877	
	469	1	1	20.62978		8.31790		8.63248	
	470	1	2	21.31090		7.46536		8.37002	
	471	1	1	0.38236		7.14988		8.26003	
	472	1	2	0.02870		8.19864		8.07385	
	473	1	1	0.92611		7.52803		8.14163	
	474	1	2	1.01973		6.49744		8.57609	
	475	1	1	0.66703		7.45439		8.10759	
	476	1	2	1.15991		7.89509		7.20067	
	477	1	1	1.96080		7.56772		7.91556	
	478	1	2	2.52768		7.87893		6.99825	
	479	1	1	2.11882		8.69379		7.65284	
	480	1	2	2.81265		8.12625		8.32822	
	481	1	1	3.21013		8.08001		7.27964	
	482	1	2	3.10013		8.25019		6.17575	
	483	1	1	2.17013		7.83090		6.64367	
	484	1	2	1.33704		8.19273		5.98437	
	485	1	1	0.52918		8.94920		5.79790	
	486	1	2	21.60963		9.34126		6.30816	
	487	1	1	20.90699		8.86987		7.04554	
	488	1	2	20.00682		9.33812		6.56587	
	489	1	1	20.49988		8.94919		5.63566	
	490	1	2	21.60971		9.04013		5.49550	
	491	1	1	20.92815		9.06189		6.38693	
	492	1	2	20.67405		8.88563		7.46582	
	493	1	1	21.76645		8.79840		7.22354	
	494	1	2	21.34903		8.88987		8.26135	
	495	1	1	20.92478		7.93506		8.67120	
	496	1	2	21.56610		8.23655		7.80088	
	497	1	1	20.85722		7.87457		8.59215	
	498	1	2	21.86567		8.30127		8.83834	
	499	1	1	21.89912		7.63485		9.74079	
	500	1	2	0.30355		7.64216		8.69387	
	501	1	1	1.11790		7.60571		7.92241	
	502	1	2	0.83436		8.40620		7.18861	
	503	1	1	1.05724		7.35102		6.87789	
	504	1	2	1.81135		7.35670		7.70910	
	505	1	1	1.59536		6.94384		8.73015	
	506	1	2	1.45876		8.05608		8.66762	
	507	1	1	1.45410		7.29705		9.49436	
	508	1	2	2.01013		6.85942		10.36554	
	509	1	1	1.07591		6.66214		9.77566	
	510	1	2	0.89584		5.55623		9.84045	
	511	1	1	1.37075		4.56123		10.05040	
	512	1	2	0.77260		4.13043		9.20406	
	513	1	1	0.47847		5.15729		9.54859	
	514	1	2	0.05562		6.16804		9.30520	
	515	1	1	1.01222		6.00657		9.86955	
	516	1	2	0.22306		6.49769		9.24052	
	517	1	1	21.41169		6.00683		8.64020	
	518	1	2	21.31375		4.91717		8.89057	
	519	1	1	21.58288		3.82970		8.82249	
	520	1	2	21.48814		4.08563		7.73383	
	521	1	1	21.00946		4.19801		6.72493	
	522	1	2	21.73538		4.91056		6.25064	
	523	1	1	20.78603		4.61283		5.73127	
	524	1	2	20.24863		5.49273		5.28786	
	525	1	1	19.87070		6.51315		5.56273	
	526	1	2	19.89364		5.64175		6.26967	
	527	1	1	20.40780		4.69376		5.95885	
	528	1	2	19.31685		4.44278		6.03932	
	529	1	1	19.74942		4.10095		5.06173	
	530	1	2	19.96369		4.18743		6.16003	
	531	1	1	20.46656		4.43366		7.13273	
	532	1	2	20.89001		4.86956		8.07630	
	533	1	1	20.69399		4.21486		7.18603	
	534	1	2	20.62685		5.13249		7.82874	
	535	1	1	21.09317		4.41956		7.09805	
	536	1	2	21.26222		4.42639		5.98854	
	537	1	1	20.95915		5.07289		5.12261	
	538	1	2	20.50270		5.88457		5.74909	
	539	1	1	19.85981		4.96701		5.81561	
	540	1	2	19.43550		5.87156		6.32688	
	541	1	1	20.22160		6.64629		6.53059	
	542	1	2	19.36403		7.36969		6.50022	
	543	1	1	18.28199		7.66562		6.53554	
	544	1	2	18.27378		7.94556		5.44870	
	545	1	1	18.18486		7.46712		6.46006	
	546	1	2	18.77785		7.50770		7.41208	
	547	1	1	17.90878		7.12464		6.81407	
	548	1	2	17.16748		7.05632		7.65398	
	549	1	1	16.70012		6.69188		8.60708	
	550	1	2	15.86730		6.93510		9.31906	
	551	1	1	16.97592		6.76795		9.37066	
	552	1	2	16.78840		7.58334		8.62258	
	553	1	1	17.35564		8.08585		9.45044	
	554	1	2	18.33634		7.56601		9.61673	
	555	1	1	18.12142		6.55784		9.17282	
	556	1	2	18.11797		7.28196		10.03031	
	557	1	1	18.01096		8.11688		10.77267	
	558	1	2	19.07811		8.28259		10.46708	
	559	1	1	18.89258		9.38946		10.45947	
	560	1	2	18.07288		9.25531		11.21428	
	561	1	1	18.20920		9.82130		12.17382	
	562	1	2	17.77504		9.56217		11.17182	
	563	1	1	17.56760		9.83539		12.24045	
	564	1	2	16.45441		9.69299		12.22700	
	565	1	1	15.62299		9.45313		12.94175	
	566	1	2	15.21175		9.96509		13.85193	
	567	1	1	15.29359		9.22396		14.69079	
	568	1	2	16.21989		8.59509		14.61254	
	569	1	1	16.87932		9.43650		14.27073	
	570	1	2	17.23367		9.60884		15.32163	
	571	1	1	16.93007		10.68461		15.42254	
	572	1	2	17.59087		11.19014		16.17583	
	573	1	1	18.04460		10.73365		15.25637	
	574	1	2	17.02558		11.05488		14.91278	
	575	1	1	17.29203		10.29497		14.13099	
	576	1	2	16.96074		10.84249		15.05301	
	577	1	1	16.32261		10.03785		15.50577	
	578	1	2	17.15545		10.02364		14.75356	
	579	1	1	17.80169		9.13712		14.99040	
	580	1	2	17.57298		10.23169		15.08656	
	581	1	1	18.52448		10.79716		15.27246	
	582	1	2	18.80944		9.73904		15.51500	
	583	1	1	19.42874		8.84669		15.23246	
	584	1	2	19.55663		8.16701		14.34854	
	585	1	1	20.31224		7.84656		15.11405	
	586	1	2	19.22063		7.77724		15.36548	
	587	1	1	20.26431		7.65810		15.76068	
	588	1	2	20.31952		6.79399		16.47477	
	589	1	1	21.33425		6.91091		16.93985	
	590	1	2	21.44804		6.07415		17.67914	
	591	1	1	21.19142		5.28536		16.92310	
	592	1	2	20.36339		4.58554		16.63280	
	593	1	1	19.78725		3.68795		16.98215	
	594	1	2	20.05169		4.32550		17.86716	
	595	1	1	20.66783		4.14273		16.94705	
	596	1	2	20.34775		5.01118		16.31224	
	597	1	1	19.58857		4.67922		17.06927	
	598	1	2	19.51901		3.68212		17.57977	
	599	1	1	19.89069		2.82586		18.20292	
	600	1	2	20.52805		2.60010		17.30712	
	601	1	1	20.44308		3.52707		17.93413	
	602	1	2	20.02918		4.37757		18.53827	
	603	1	1	20.13715		4.81071		19.56802	
	604	1	2	19.73433		4.97891		20.60198	
	605	1	1	19.29245		4.94685		19.57079	
	606	1	2	20.04578		5.65919		20.00056	
	607	1	1	19.52114		5.60709		19.00976	
	608	1	2	18.55606		5.82018		18.47792	
	609	1	1	17.46358		6.01258		18.30729	
	610	1	2	18.16602		5.31165		18.83162	
	611	1	1	18.55896		6.02323		18.05773	
	612	1	2	17.46215		5.90438		17.85145	
	613	1	1	17.37896		4.79120		17.73505	
	614	1	2	17.65025		4.29477		16.76572	
	615	1	1	18.50200		4.61198		17.42415	
	616	1	2	18.46466		3.54194		17.08762	
	617	1	1	17.83524		3.66034		18.00928	
	618	1	2	17.05115		3.08226		18.56666	
	619	1	1	16.63774		3.06159		17.52344	
	620	1	2	17.08436		2.09640		17.88200	
	621	1	1	17.57763		1.08934		17.83543	
	622	1	2	18.56405		0.55466		17.80827	
	623	1	1	19.03666		0.09603		16.89946	
	624	1	2	18.18039		0.36476		17.57343	
	625	1	1	17.13433		0.01685		17.36283	
	626	1	2	16.37546		21.32502		16.90991	
	627	1	1	16.25182		21.42121		18.02126	
	628	1	2	16.35486		20.70854		17.16037	
	629	1	1	16.84974		20.19997		16.29084	
	630	1	2	16.16889		19.34067		16.53103	
	631	1	1	16.73811		19.87671		17.33619	
	632	1	2	15.92382		19.77585		16.57042	
	633	1	1	15.22089		19.94403		15.71179	
	634	1	2	15.51636		19.51889		16.70758	
	635	1	1	15.61440		18.43155		16.44735	
	636	1	2	14.63715		18.23022		15.93345	
	637	1	1	13.66572		17.86472		16.36052	
	638	1	2	13.63865		18.04938		17.46723	
	639	1	1	12.77308		17.36065		17.65722	
	640	1	2	12.03083		18.04850		18.14258	
	641	1	1	12.19356		18.19439		17.04172	
	642	1	2	12.10505		19.25115		17.40927	
	643	1	1	11.52884		19.72284		16.56954	
	644	1	2	12.24121		19.40766		15.76155	
	645	1	1	12.63112		20.41242		16.07473	
	646	1	2	13.54690		21.02957		15.87445	
	647	1	1	14.22951		20.97841		16.76388	
	648	1	2	15.17011		20.40068		16.96671	
	649	1	1	15.74575		21.18124		16.40188	
	650	1	2	14.65226		21.36493		16.57562	
	651	1	1	15.66765		21.60799		16.16388	
	652	1	2	16.57862		0.06421		15.69308	
	653	1	1	16.73243		21.55037		14.70719	
	654	1	2	15.81154		0.19143		14.68139	
	655	1	1	16.46075		0.67480		13.90388	
	656	1	2	16.30413		1.75189		13.63004	
	657	1	1	15.30877		2.10212		13.24762	
	658	1	2	15.04793		1.02282		13.08413	
	659	1	1	16.06912		1.28336		13.47005	
	660	1	2	16.72177		2.09258		13.89298	
	661	1	1	16.89381		1.10062		13.39694	
	662	1	2	17.98401		1.33166		13.53008	
	663	1	1	17.28352		1.38988		12.65510	
	664	1	2	17.29776		2.39695		13.15034	
	665	1	1	17.24124		2.63896		14.24482	
	666	1	2	18.15319		2.75056		13.60020	
	667	1	1	18.66962		3.36762		14.38262	
	668	1	2	18.98673		4.37311		13.99781	
	669	1	1	19.42792		3.38207		14.28564	
	670	1	2	18.95476		2.48513		14.76653	
	671	1	1	19.22452		2.57610		15.85217	
	672	1	2	19.25263		2.66554		14.73375	
	673	1	1	18.36439		2.77631		15.41081	
	674	1	2	18.38710		2.41193		16.47212	
	675	1	1	17.80323		1.46586		16.62601	
	676	1	2	17.92674		2.17519		15.76506	
	677	1	1	17.60389		3.16637		15.34916	
	678	1	2	18.17461		2.60552		14.56216	
	679	1	1	17.96664		3.56535		15.10541	
	680	1	2	18.95034		3.61218		14.56709	
	681	1	1	19.91389		3.08923		14.80739	
	682	1	2	19.47000		3.38875		13.82104	
	683	1	1	19.57614		3.52307		12.71183	
	684	1	2	19.77918		4.43185		13.33835	
	685	1	1	20.76252		4.49236		13.87597	
	686	1	2	21.80445		4.80032		14.15735	
	687	1	1	20.69732		4.73378		14.32904	
	688	1	2	21.74328		4.43282		14.05509	
	689	1	1	21.09433		4.86235		14.86381	
	690	1	2	0.11214		5.25452		14.59940	
	691	1	1	0.50667		6.30339		14.66160	
	692	1	2	1.25641		5.75377		15.29045	
	693	1	1	1.73806		5.99771		16.27439	
	694	1	2	0.89894		5.34311		15.91800	
	695	1	1	21.91692		5.55118		16.41998	
	696	1	2	0.26790		5.14997		15.43231	
	697	1	1	21.71032		4.73259		16.31240	
	698	1	2	20.60851		4.61615		16.13327	
	699	1	1	21.41639		5.37465		16.31121	
	700	1	2	21.08906		5.99124		15.43239	
	701	1	1	20.70835		5.48390		14.50648	
	702	1	2	21.05470		4.42539		14.36774	
	703	1	1	21.93807		3.74735		14.22787	
	704	1	2	21.22187		3.03580		13.73756	
	705	1	1	20.72357		2.30690		14.43042	
	706	1	2	21.50864		2.96393		14.89045	
	707	1	1	21.97041		2.11420		14.32089	
	708	1	2	0.99273		2.27358		14.75576	
	709	1	1	0.37705		2.05702		13.84270	
	710	1	2	0.39910		1.08908		14.41038	
	711	1	1	21.70317		0.91399		13.54744	
	712	1	2	21.94964		21.86963		13.21851	
	713	1	1	0.54266		0.19786		12.32395	
	714	1	2	1.34150		21.48321		12.65678	
	715	1	1	0.75994		21.15368		11.75520	
	716	1	2	1.27045		21.85400		11.04205	
	717	1	1	1.51502		21.07430		11.81140	
	718	1	2	1.08949		20.04637		11.95943	
	719	1	1	0.88675		21.06146		11.52569	
	720	1	2	0.54633		20.18332		12.13614	
	721	1	1	0.90082		19.13502		11.94892	
	722	1	2	0.07689		19.24077		12.70364	
	723	1	1	20.99742		19.54356		12.75572	
	724	1	2	20.84676		18.63370		12.11611	
	725	1	1	19.87371		18.92167		12.59558	
	726	1	2	19.02087		18.26354		12.91051	
	727	1	1	18.73508		19.33362		12.72910	
	728	1	2	18.08444		18.46240		12.45108	
	729	1	1	17.66127		17.42348		12.48582	
	730	1	2	16.69219		17.25109		13.02510	
	731	1	1	16.37171		17.01436		14.07434	
	732	1	2	16.14797		17.04191		12.97487	
	733	1	1	16.73434		17.72981		13.64016	
	734	1	2	17.14248		18.22704		14.55985	
	735	1	1	16.05215		17.97100		14.63245	
	736	1	2	16.68077		18.12927		15.54866	
	737	1	1	16.62780		17.45865		16.44705	
	738	1	2	15.66249		17.16672		16.93958	
	739	1	1	16.51652		17.29509		17.65637	
	740	1	2	15.61451		17.26913		18.32372	
	741	1	1	14.84209		16.52950		17.98318	
	742	1	2	14.25660		16.36529		17.03985	
	743	1	1	13.28237		16.90510		16.90151	
	744	1	2	14.19016		17.13411		16.28255	
	745	1	1	13.96869		17.68993		17.23212	
	746	1	2	12.86292		17.59770		17.40067	
	747	1	1	12.59619		18.66542		17.18049	
	748	1	2	13.36723		18.89014		17.96449	