#-----------------------------------------------------------------------------------           
# NANOPOLY - POLYMER NANOCOMPOSITE STRUCTURAL DATA FILE                                        
#-----------------------------------------------------------------------------------           
# FILENAME:  test_structure.in                                                                  
# DATE: 2021-06-08                                                                                
#-----------------------------------------------------------------------------------           
                                                                                               
20 atoms                                                             
19 bonds                                                             
                                                                                               
2 atom types                                      
1 bond types                                            
                                                                                    
0.0000 10.0000 xlo xhi            
0.0000 10.0000 ylo yhi            
0.0000 10.0000 zlo zhi            
                                                                                    
                                                                                    
# Types have been converted numerically as follows:                                 
# 1 a
# 2 b
                                                                                    
Masses                                                                              
                                                                                    
1	1.0
2	0.5

Atoms                                                                               

	1	1	1	8.74753		9.54816		4.25962	
	2	1	1	8.82794		8.60442		4.86173	
	3	1	1	9.63003		7.94575		4.43459	
	4	1	1	9.89447		8.00968		3.34572	
	5	1	1	9.10491		8.78272		3.54234	
	6	1	1	8.36864		9.12656		2.76817	
	7	1	1	9.18531		9.88662		2.64563	
	8	1	1	8.93369		8.79826		2.53700	
	9	1	1	8.72549		9.10957		3.59501	
	10	1	1	7.74054		8.88266		3.10712	
	11	1	1	7.97735		9.90382		2.70612	
	12	1	1	7.91510		0.35013		1.67822	
	13	1	1	7.05298		0.28497		2.39387	
	14	1	1	7.81703		9.52279		2.08572	
	15	1	1	8.42446		8.90030		1.37636	
	16	1	1	9.21237		8.14203		1.12362	
	17	1	1	9.76754		7.93334		0.17080	
	18	1	1	0.50938		8.23289		9.38366	
	19	1	1	0.04273		8.31414		0.40115	
	20	1	1	1.00379		8.63032		9.91530	
Bonds                                                                               
                                                                                    
	1	1	1	2
	2	1	2	3
	3	1	3	4
	4	1	4	5
	5	1	5	6
	6	1	6	7
	7	1	7	8
	8	1	8	9
	9	1	9	10
	10	1	10	11
	11	1	11	12
	12	1	12	13
	13	1	13	14
	14	1	14	15
	15	1	15	16
	16	1	16	17
	17	1	17	18
	18	1	18	19
	19	1	19	20
