#-----------------------------------------------------------------------------------           
# NANOPOLY - POLYMER NANOCOMPOSITE STRUCTURAL DATA FILE                                        
#-----------------------------------------------------------------------------------           
# FILENAME:  test_structure.in                                                                  
# DATE: 2021-01-15                                                                                
#-----------------------------------------------------------------------------------           
                                                                                               
30 atoms                                                             
18 bonds                                                             
                                                                                               
4 atom types                                            
1 bond types                                            
                                                                                    
0.0000 1.2120 xlo xhi            
0.0000 1.2120 ylo yhi            
0.0000 1.2120 zlo zhi            
                                                                                    
Masses                                                                              
                                                                                    
1	1.0
2	1.0
3	1.0
4	3.0


Atoms                                                                               

	1	1	1	1.20518		0.09746		1.08074	
	2	1	2	0.63280		1.17053		0.92244	
	3	1	3	0.37554		0.55248		1.10824	
	4	1	1	1.04033		0.83868		0.16481	
	5	1	2	1.02456		0.29030		0.55532	
	6	1	3	0.41077		0.56645		0.57700	
	7	1	1	0.23836		0.00423		0.61605	
	8	1	2	1.06258		0.66799		0.56577	
	9	1	3	0.60159		0.23100		0.34216	
	10	1	1	0.44119		0.88444		0.00193	
	11	2	1	0.93056		1.11842		0.14781	
	12	2	2	0.36500		0.09503		0.14311	
	13	2	3	0.64063		0.20627		0.75085	
	14	2	1	1.10922		0.94348		0.84289	
	15	2	2	0.42472		1.00535		0.42890	
	16	2	3	0.65482		0.58217		0.89948	
	17	2	1	0.02160		0.62766		1.12407	
	18	2	2	0.68702		0.23456		1.13811	
	19	2	3	0.02514		1.17552		0.20429	
	20	2	1	0.00653		0.21428		0.79159	
	21	3	4	0.01730		0.49023		0.29610	
	22	3	4	0.25552		0.77224		0.33821	
	23	3	4	0.11884		0.93536		0.60634	
	24	3	4	0.32754		0.82362		0.81642	
	25	3	4	0.64512		0.78340		0.49570	
	26	3	4	0.66834		0.93869		0.21554	
	27	3	4	0.90901		0.27721		0.91885	
	28	3	4	0.96830		0.43453		0.08695	
	29	3	4	0.93654		0.77904		1.08458	
	30	3	4	1.11140		1.14311		0.47888	
Bonds                                                                               
                                                                                    
	1	1	1	2
	2	1	2	3
	3	1	3	4
	4	1	4	5
	5	1	5	6
	6	1	6	7
	7	1	7	8
	8	1	8	9
	9	1	9	10
	10	1	11	12
	11	1	12	13
	12	1	13	14
	13	1	14	15
	14	1	15	16
	15	1	16	17
	16	1	17	18
	17	1	18	19
	18	1	19	20
