#-----------------------------------------------------------------------------------           
# NANOPOLY - POLYMER NANOCOMPOSITE STRUCTURAL DATA FILE                                        
#-----------------------------------------------------------------------------------           
# FILENAME:  test_structure.in                                                                  
# DATE: 2021-01-15                                                                                
#-----------------------------------------------------------------------------------           
                                                                                               
30 atoms                                                             
18 bonds                                                             
                                                                                               
4 atom types                                            
1 bond types                                            
                                                                                    
0.0000 1.2120 xlo xhi            
0.0000 1.2120 ylo yhi            
0.0000 1.2120 zlo zhi            
                                                                                    
Masses                                                                              
                                                                                    
1	1.0
2	1.0
3	1.0
4	3.0


Atoms                                                                               

	1	1	1	0.57369		0.22889		1.04709	
	2	1	2	1.00295		0.39955		0.55710	
	3	1	3	0.19862		0.86213		0.28638	
	4	1	1	0.72998		0.61536		1.16636	
	5	1	2	0.16556		0.82392		0.86402	
	6	1	3	0.23125		0.19103		1.08449	
	7	1	1	0.17498		0.50214		0.48992	
	8	1	2	1.15119		0.68434		1.09803	
	9	1	3	0.34171		1.06419		0.71441	
	10	1	1	0.83730		0.63910		0.87919	
	11	2	1	1.15031		0.94832		0.49878	
	12	2	2	0.61562		0.14549		0.48645	
	13	2	3	0.89492		0.69827		0.22206	
	14	2	1	1.10539		0.06087		0.27578	
	15	2	2	0.42507		0.98485		1.19141	
	16	2	3	0.99628		1.18261		0.89462	
	17	2	1	0.61644		1.08651		0.34693	
	18	2	2	0.42064		0.44876		0.25526	
	19	2	3	0.57011		0.47216		0.81107	
	20	2	1	0.29647		1.20634		0.42340	
	21	3	4	0.03262		0.15516		0.85826	
	22	3	4	0.08502		0.46604		0.03134	
	23	3	4	0.26872		0.37975		0.85284	
	24	3	4	0.47751		0.15107		0.76052	
	25	3	4	0.40388		0.75545		0.67042	
	26	3	4	0.88809		0.88871		0.63988	
	27	3	4	0.68421		1.10169		0.71408	
	28	3	4	0.85692		0.94236		1.18078	
	29	3	4	1.07387		0.37510		0.98415	
	30	3	4	1.18596		0.98009		0.08186	
Bonds                                                                               
                                                                                    
	1	1	1	2
	2	1	2	3
	3	1	3	4
	4	1	4	5
	5	1	5	6
	6	1	6	7
	7	1	7	8
	8	1	8	9
	9	1	9	10
	10	1	11	12
	11	1	12	13
	12	1	13	14
	13	1	14	15
	14	1	15	16
	15	1	16	17
	16	1	17	18
	17	1	18	19
	18	1	19	20
