#-----------------------------------------------------------------------------------           
# NANOPOLY - POLYMER NANOCOMPOSITE STRUCTURAL DATA FILE                                        
#-----------------------------------------------------------------------------------           
# FILENAME:  test_structure.in                                                                  
# DATE: 2021-05-14                                                                                
#-----------------------------------------------------------------------------------           
                                                                                               
5000 atoms                                                             
4995 bonds                                                             
                                                                                               
2 atom types                                      
1 bond types                                            
                                                                                    
0.0000 25.0000 xlo xhi            
0.0000 25.0000 ylo yhi            
0.0000 25.0000 zlo zhi            
                                                                                    
                                                                                    
# Types have been converted numerically as follows:                                 
# 1 a
# 2 b
                                                                                    
Masses                                                                              
                                                                                    
1	0.5
2	1.0

Atoms                                                                               

	1	1	1	12.57410		13.60056		12.59372	
	2	1	1	12.83676		13.40886		12.68105	
	3	1	1	12.96785		13.70094		12.57677	
	4	1	1	12.94511		13.96552		12.78376	
	5	1	1	12.61161		14.00213		12.75536	
	6	1	1	12.45206		13.90792		12.47422	
	7	1	1	12.14372		13.79552		12.39901	
	8	1	1	12.30344		13.49934		12.41078	
	9	1	1	12.07515		13.27711		12.30185	
	10	1	1	12.01896		13.33477		12.62878	
	11	1	1	11.77451		13.11686		12.70708	
	12	1	1	11.79714		12.96606		13.00727	
	13	1	1	11.90740		12.90896		13.32024	
	14	1	1	11.60991		13.06640		13.32896	
	15	1	1	11.87152		12.89758		13.20081	
	16	1	1	11.94812		13.20691		13.30951	
	17	1	1	11.75985		13.27586		13.03901	
	18	1	1	11.61323		13.57643		13.07807	
	19	1	1	11.72945		13.79881		13.30259	
	20	1	1	11.55062		13.69056		13.03864	
	21	1	1	11.52634		13.36738		12.94733	
	22	1	1	11.21758		13.39922		13.07780	
	23	1	1	10.94600		13.42156		13.27557	
	24	1	1	10.98717		13.09624		13.19917	
	25	1	1	11.24722		13.16125		12.99541	
	26	1	1	10.97275		13.15572		12.80048	
	27	1	1	10.71513		12.95325		12.87797	
	28	1	1	10.76168		12.62048		12.89956	
	29	1	1	11.08133		12.51483		12.89431	
	30	1	1	11.35794		12.32895		12.94234	
	31	1	1	11.08672		12.30596		13.14053	
	32	1	1	10.86921		12.09337		13.28496	
	33	1	1	11.16517		12.18347		13.41785	
	34	1	1	11.33903		12.24839		13.13691	
	35	1	1	11.01727		12.17766		13.20648	
	36	1	1	11.13599		12.41313		12.99713	
	37	1	1	11.06342		12.37471		12.67060	
	38	1	1	11.28144		12.13706		12.57386	
	39	1	1	11.51232		12.37196		12.50393	
	40	1	1	11.80941		12.31732		12.35521	
	41	1	1	11.76393		12.64331		12.28428	
	42	1	1	11.92397		12.38724		12.43321	
	43	1	1	12.23141		12.49523		12.34844	
	44	1	1	12.17108		12.20795		12.51336	
	45	1	1	12.24945		11.90047		12.62596	
	46	1	1	12.44747		12.06632		12.84195	
	47	1	1	12.47687		12.10793		13.17478	
	48	1	1	12.50706		12.38910		13.35753	
	49	1	1	12.62228		12.70452		13.33306	
	50	1	1	12.62264		12.55957		13.02916	
	51	1	1	12.75625		12.78231		13.24340	
	52	1	1	12.60050		12.75258		12.94638	
	53	1	1	12.67060		12.58060		13.22723	
	54	1	1	12.43353		12.37494		13.10528	
	55	1	1	12.49006		12.63676		12.90126	
	56	1	1	12.30555		12.90433		12.98917	
	57	1	1	12.23256		13.22158		12.90319	
	58	1	1	12.51071		13.27539		12.72124	
	59	1	1	12.66910		13.01819		12.57247	
	60	1	1	12.70098		12.89012		12.26271	
	61	1	1	12.86211		12.60400		12.18828	
	62	1	1	12.95845		12.86003		11.99198	
	63	1	1	12.96447		12.56799		12.15945	
	64	1	1	12.97977		12.25464		12.28170	
	65	1	1	12.69008		12.18433		12.12516	
	66	1	1	12.96409		12.10002		11.94859	
	67	1	1	13.07046		12.38360		11.80151	
	68	1	1	12.83550		12.16201		11.89669	
	69	1	1	13.10165		12.36499		11.93322	
	70	1	1	13.04163		12.34565		12.26397	
	71	1	1	12.92939		12.19959		11.98212	
	72	1	1	12.92896		11.92567		11.78633	
	73	1	1	12.70556		11.68797		11.70290	
	74	1	1	12.75759		11.51208		11.98525	
	75	1	1	13.00429		11.72797		11.90843	
	76	1	1	12.86666		11.43177		11.99026	
	77	1	1	13.17138		11.51589		11.87432	
	78	1	1	13.03500		11.69775		11.62593	
	79	1	1	13.30495		11.61477		11.80926	
	80	1	1	13.41174		11.89435		11.96353	
	81	1	1	13.68606		11.71593		11.88430	
	82	1	1	13.70043		11.93357		12.14080	
	83	1	1	13.40037		11.85141		12.26957	
	84	1	1	13.41806		12.17857		12.19200	
	85	1	1	13.33534		12.01155		12.47241	
	86	1	1	13.59062		12.20684		12.57274	
	87	1	1	13.54919		12.10039		12.25600	
	88	1	1	13.57256		12.25087		11.95571	
	89	1	1	13.55629		12.07249		11.67060	
	90	1	1	13.60694		12.11153		12.00118	
	91	1	1	13.47305		12.39273		11.87323	
	92	1	1	13.75614		12.45206		11.70088	
	93	1	1	13.74999		12.38023		11.37199	
	94	1	1	13.53852		12.11889		11.39070	
	95	1	1	13.50311		11.83213		11.21784	
	96	1	1	13.46630		11.68648		11.51917	
	97	1	1	13.25350		11.48447		11.68433	
	98	1	1	13.42448		11.48680		11.39428	
	99	1	1	13.61000		11.25875		11.23013	
	100	1	1	13.88270		11.06769		11.18015	
	101	1	1	14.21480		11.02472		11.21526	
	102	1	1	14.14669		11.32676		11.08297	
	103	1	1	14.26872		11.35295		11.39569	
	104	1	1	14.04248		11.55738		11.25288	
	105	1	1	13.85006		11.49337		10.98410	
	106	1	1	14.02981		11.61176		10.72517	
	107	1	1	14.10733		11.88077		10.53811	
	108	1	1	13.78760		11.82578		10.62820	
	109	1	1	13.75188		11.94751		10.94009	
	110	1	1	13.74409		12.28321		10.96483	
	111	1	1	13.86040		12.03907		10.76425	
	112	1	1	14.02366		12.00494		11.05674	
	113	1	1	14.12087		11.81576		10.79572	
	114	1	1	13.83426		11.74369		10.95706	
	115	1	1	13.93513		12.03450		11.09352	
	116	1	1	13.83575		11.71746		11.14804	
	117	1	1	13.61383		11.94931		11.04624	
	118	1	1	13.92285		12.03938		10.94746	
	119	1	1	14.11968		11.76644		10.95888	
	120	1	1	14.22518		12.00225		10.74294	
	121	1	1	14.42420		11.79401		10.56860	
	122	1	1	14.58828		12.08175		10.62903	
	123	1	1	14.89951		12.20725		10.60158	
	124	1	1	14.73998		12.40894		10.38423	
	125	1	1	14.43463		12.28149		10.32189	
	126	1	1	14.66200		12.50504		10.43004	
	127	1	1	14.82421		12.21631		10.49081	
	128	1	1	14.79308		11.92839		10.66257	
	129	1	1	14.53984		12.03029		10.46545	
	130	1	1	14.85797		12.04219		10.57510	
	131	1	1	15.14490		11.87190		10.52991	
	132	1	1	15.27442		11.56154		10.51356	
	133	1	1	15.37117		11.72380		10.23486	
	134	1	1	15.22190		11.47719		10.06088	
	135	1	1	15.25505		11.80200		10.14313	
	136	1	1	15.51217		11.66283		10.31013	
	137	1	1	15.54664		11.36954		10.47188	
	138	1	1	15.86578		11.26992		10.43194	
	139	1	1	16.15818		11.12622		10.34695	
	140	1	1	15.85881		11.13070		10.19291	
	141	1	1	15.63483		11.00773		10.41218	
	142	1	1	15.74417		10.91947		10.71816	
	143	1	1	15.86255		11.19248		10.87571	
	144	1	1	16.07492		10.93983		10.80913	
	145	1	1	16.23503		11.17846		10.98460	
	146	1	1	16.17637		11.49613		11.07952	
	147	1	1	16.43517		11.32392		10.95015	
	148	1	1	16.13571		11.26832		10.80661	
	149	1	1	15.84412		11.12251		10.72245	
	150	1	1	15.67278		11.41226		10.72990	
	151	1	1	15.94823		11.45305		10.54059	
	152	1	1	15.62790		11.54084		10.48539	
	153	1	1	15.66345		11.84607		10.34779	
	154	1	1	15.78153		11.77231		10.04122	
	155	1	1	15.50123		11.70245		9.86825	
	156	1	1	15.51358		12.03370		9.80915	
	157	1	1	15.32568		12.26379		9.65065	
	158	1	1	15.25525		12.42611		9.36419	
	159	1	1	15.18856		12.22149		9.62313	
	160	1	1	15.51798		12.15770		9.65108	
	161	1	1	15.31783		11.88699		9.64620	
	162	1	1	15.28478		11.55194		9.65037	
	163	1	1	15.12568		11.41662		9.38629	
	164	1	1	15.14402		11.28503		9.69567	
	165	1	1	15.26886		11.23861		10.00491	
	166	1	1	15.23271		11.07395		10.29637	
	167	1	1	15.33527		10.75325		10.29747	
	168	1	1	15.15045		10.47273		10.27474	
	169	1	1	15.25103		10.50878		10.59404	
	170	1	1	15.47810		10.26090		10.61308	
	171	1	1	15.45834		10.42378		10.90711	
	172	1	1	15.35055		10.11598		10.82337	
	173	1	1	15.49798		10.09315		10.52153	
	174	1	1	15.33072		10.04015		10.23416	
	175	1	1	15.59402		10.24974		10.22355	
	176	1	1	15.84769		10.33115		10.01766	
	177	1	1	15.99251		10.03727		9.93998	
	178	1	1	16.21618		9.84576		10.10326	
	179	1	1	16.36950		10.00095		10.35973	
	180	1	1	16.35103		10.07643		10.03212	
	181	1	1	16.15456		10.17656		9.77768	
	182	1	1	16.04772		9.93938		9.56391	
	183	1	1	15.75965		10.03099		9.41563	
	184	1	1	15.59869		10.01193		9.71075	
	185	1	1	15.89985		9.88419		9.79046	
	186	1	1	15.93690		10.13444		10.01265	
	187	1	1	16.08680		10.21364		10.30356	
	188	1	1	15.84742		10.04266		10.46735	
	189	1	1	15.86692		10.37873		10.46065	
	190	1	1	16.03666		10.52363		10.71276	
	191	1	1	15.80084		10.57688		10.94710	
	192	1	1	15.84554		10.27577		11.09098	
	193	1	1	15.87104		9.94270		11.04874	
	194	1	1	16.05712		9.91211		11.32767	
	195	1	1	16.03931		10.15304		11.56220	
	196	1	1	15.83010		9.90930		11.46126	
	197	1	1	15.67393		10.17188		11.60279	
	198	1	1	15.71937		9.90478		11.40288	
	199	1	1	15.91337		10.16977		11.47713	
	200	1	1	15.86096		10.49714		11.41843	
	201	1	2	16.09985		10.42157		11.19350	
	202	1	2	16.24421		10.50091		11.48716	
	203	1	2	16.34969		10.59626		11.79236	
	204	1	2	16.02500		10.50789		11.80397	
	205	1	2	15.79572		10.48547		11.55841	
	206	1	2	15.50143		10.32352		11.58158	
	207	1	2	15.38640		10.21125		11.87744	
	208	1	2	15.11304		10.21470		12.07398	
	209	1	2	15.28080		9.97735		12.24396	
	210	1	2	15.09183		10.23439		12.35162	
	211	1	2	15.16419		10.56020		12.30712	
	212	1	2	15.50034		10.55518		12.28864	
	213	1	2	15.36235		10.74467		12.04693	
	214	1	2	15.38804		10.93621		12.32264	
	215	1	2	15.07682		10.83461		12.40132	
	216	1	2	15.18515		10.81858		12.71971	
	217	1	2	15.13639		10.53309		12.89142	
	218	1	2	15.44917		10.56408		13.01216	
	219	1	2	15.17205		10.68766		13.15810	
	220	1	2	15.00316		10.52066		13.39676	
	221	1	2	15.21539		10.29025		13.27332	
	222	1	2	15.35189		10.25242		12.96786	
	223	1	2	15.54462		10.07987		12.75235	
	224	1	2	15.78207		10.17897		12.53517	
	225	1	2	15.71876		10.30760		12.83983	
	226	1	2	15.65420		10.63797		12.84740	
	227	1	2	15.90254		10.48234		12.68164	
	228	1	2	15.66117		10.36608		12.47769	
	229	1	2	15.52538		10.07577		12.37449	
	230	1	2	15.52221		10.27129		12.10040	
	231	1	2	15.79210		10.21778		11.90633	
	232	1	2	15.83609		10.05341		12.19687	
	233	1	2	15.77759		9.79860		11.98470	
	234	1	2	15.98695		9.54322		11.91901	
	235	1	2	15.91275		9.32987		11.66932	
	236	1	2	16.02895		9.62016		11.54441	
	237	1	2	16.16427		9.84427		11.33268	
	238	1	2	15.85584		9.92202		11.22226	
	239	1	2	15.77132		9.99813		10.90535	
	240	1	2	15.59859		9.71457		10.96125	
	241	1	2	15.33579		9.72404		11.17152	
	242	1	2	15.22695		9.50833		11.40603	
	243	1	2	15.49430		9.63145		11.56952	
	244	1	2	15.77871		9.55087		11.73071	
	245	1	2	15.60153		9.48882		11.45121	
	246	1	2	15.64378		9.75280		11.24651	
	247	1	2	15.68233		9.41907		11.26901	
	248	1	2	15.78825		9.23617		11.53111	
	249	1	2	15.60367		8.96057		11.58897	
	250	1	2	15.57059		9.23668		11.77880	
	251	1	2	15.72263		9.34247		12.05998	
	252	1	2	15.61186		9.39419		12.37371	
	253	1	2	15.68908		9.72058		12.34423	
	254	1	2	15.39324		9.65713		12.19652	
	255	1	2	15.49626		9.95367		12.07479	
	256	1	2	15.19527		9.80372		12.05790	
	257	1	2	15.07277		9.72364		12.36113	
	258	1	2	15.02238		9.43216		12.52197	
	259	1	2	15.07270		9.12593		12.39134	
	260	1	2	14.80274		9.24291		12.55506	
	261	1	2	14.84321		9.44586		12.28947	
	262	1	2	14.89526		9.14073		12.15698	
	263	1	2	14.73866		8.84960		12.09305	
	264	1	2	14.89945		8.92553		12.37897	
	265	1	2	15.22666		8.94572		12.45572	
	266	1	2	15.35384		8.73571		12.68613	
	267	1	2	15.19920		8.64351		12.40160	
	268	1	2	15.52737		8.71854		12.39493	
	269	1	2	15.82224		8.84744		12.29591	
	270	1	2	15.61965		8.98800		12.52519	
	271	1	2	15.49750		9.18957		12.76564	
	272	1	2	15.75907		9.06894		12.94000	
	273	1	2	15.81501		8.85729		13.19581	
	274	1	2	15.53728		8.95294		13.36038	
	275	1	2	15.31353		9.09799		13.15479	
	276	1	2	15.08682		8.92939		13.33796	
	277	1	2	14.91747		8.63980		13.36665	
	278	1	2	15.22429		8.76474		13.42679	
	279	1	2	15.04010		8.51155		13.55062	
	280	1	2	15.23100		8.29613		13.72532	
	281	1	2	15.19712		7.98912		13.59129	
	282	1	2	15.40125		8.22239		13.45983	
	283	1	2	15.39325		7.89663		13.54458	
	284	1	2	15.70821		7.91064		13.42636	
	285	1	2	15.66533		8.09533		13.14811	
	286	1	2	15.38294		8.26592		13.08088	
	287	1	2	15.07263		8.17335		12.98862	
	288	1	2	14.77386		8.02258		12.95160	
	289	1	2	14.51540		8.20906		13.06018	
	290	1	2	14.47171		7.87586		13.08109	
	291	1	2	14.50305		7.54206		13.11214	
	292	1	2	14.58213		7.21506		13.09865	
	293	1	2	14.53268		7.04532		13.38520	
	294	1	2	14.20512		6.99984		13.44845	
	295	1	2	14.33584		6.78432		13.67168	
	296	1	2	14.27419		6.76886		13.34103	
	297	1	2	14.12519		6.52583		13.16185	
	298	1	2	14.35453		6.49223		12.91763	
	299	1	2	14.06344		6.52550		12.75171	
	300	1	2	13.97459		6.23735		12.90151	
	301	1	2	13.80167		6.21830		12.61323	
	302	1	2	14.02169		5.96540		12.58154	
	303	1	2	13.72863		5.80176		12.55488	
	304	1	2	13.75376		5.73430		12.88379	
	305	1	2	13.84372		5.40987		12.88856	
	306	1	2	14.14158		5.25963		12.93410	
	307	1	2	14.42013		5.43802		12.87120	
	308	1	2	14.57202		5.67372		12.68481	
	309	1	2	14.66341		5.89774		12.45065	
	310	1	2	14.35172		5.84924		12.56840	
	311	1	2	14.54881		6.12176		12.58437	
	312	1	2	14.87197		6.05027		12.64621	
	313	1	2	14.79710		6.23757		12.37662	
	314	1	2	15.12584		6.24060		12.44932	
	315	1	2	15.18604		5.91082		12.48086	
	316	1	2	15.47480		5.98876		12.63550	
	317	1	2	15.38070		5.70456		12.78959	
	318	1	2	15.65735		5.57938		12.93507	
	319	1	2	15.84315		5.67971		12.67281	
	320	1	2	15.69658		5.80433		12.39648	
	321	1	2	15.69337		6.11783		12.51926	
	322	1	2	15.40596		6.29219		12.50020	
	323	1	2	15.72568		6.34321		12.40777	
	324	1	2	16.00914		6.19186		12.30722	
	325	1	2	15.98249		6.51348		12.40323	
	326	1	2	16.15350		6.69765		12.62730	
	327	1	2	16.48166		6.62666		12.60195	
	328	1	2	16.56829		6.57098		12.28139	
	329	1	2	16.66620		6.88965		12.32863	
	330	1	2	16.43430		7.13375		12.33139	
	331	1	2	16.65123		7.32353		12.50544	
	332	1	2	16.42395		7.52527		12.65040	
	333	1	2	16.36430		7.26499		12.85550	
	334	1	2	16.46947		7.55524		12.98989	
	335	1	2	16.34861		7.28119		13.14369	
	336	1	2	16.17760		7.43901		13.38704	
	337	1	2	16.14890		7.43566		13.72250	
	338	1	2	16.39026		7.54857		13.92833	
	339	1	2	16.40043		7.21223		13.91644	
	340	1	2	16.08429		7.32770		13.92618	
	341	1	2	15.75059		7.36261		13.95432	
	342	1	2	15.46085		7.40930		14.11937	
	343	1	2	15.66909		7.54215		13.89056	
	344	1	2	15.51881		7.58761		13.59271	
	345	1	2	15.21561		7.71714		13.52440	
	346	1	2	14.95439		7.51911		13.60128	
	347	1	2	15.03868		7.56326		13.92426	
	348	1	2	14.76848		7.43666		13.76827	
	349	1	2	15.00423		7.21987		13.87215	
	350	1	2	14.71228		7.07489		13.78781	
	351	1	2	15.02499		6.95006		13.78801	
	352	1	2	15.11116		7.01244		13.46855	
	353	1	2	15.23418		7.12878		13.17752	
	354	1	2	15.42577		7.26324		13.41956	
	355	1	2	15.42040		7.14491		13.10438	
	356	1	2	15.55046		6.92156		12.88859	
	357	1	2	15.70375		6.62484		12.93134	
	358	1	2	16.02209		6.68194		12.83772	
	359	1	2	16.13142		7.00036		12.84270	
	360	1	2	15.82815		7.06560		12.71178	
	361	1	2	16.04406		7.21060		12.92561	
	362	1	2	15.86783		7.45548		12.77613	
	363	1	2	15.86083		7.23557		12.52126	
	364	1	2	15.57875		7.32079		12.35837	
	365	1	2	15.31559		7.52304		12.30169	
	366	1	2	15.01829		7.66614		12.36880	
	367	1	2	15.00912		7.80309		12.06134	
	368	1	2	15.34005		7.76601		12.01158	
	369	1	2	15.61631		7.86438		12.17702	
	370	1	2	15.39501		8.06831		12.32804	
	371	1	2	15.44844		8.39139		12.40638	
	372	1	2	15.44888		8.26393		12.71803	
	373	1	2	15.63822		8.52981		12.80068	
	374	1	2	15.62568		8.56674		13.13512	
	375	1	2	15.92320		8.61486		12.98500	
	376	1	2	16.23703		8.59922		12.86403	
	377	1	2	16.44716		8.34286		12.80493	
	378	1	2	16.63806		8.26577		12.53850	
	379	1	2	16.49517		8.30646		12.23635	
	380	1	2	16.61610		8.50526		11.99299	
	381	1	2	16.29601		8.60893		11.98036	
	382	1	2	16.07255		8.36364		12.03752	
	383	1	2	16.20559		8.56135		12.27538	
	384	1	2	16.36622		8.51883		12.56823	
	385	1	2	16.34276		8.85099		12.61810	
	386	1	2	16.11959		9.09808		12.56802	
	387	1	2	16.36276		8.92182		12.41581	
	388	1	2	16.44035		8.64084		12.24729	
	389	1	2	16.15357		8.78392		12.35050	
	390	1	2	16.42161		8.90469		12.18637	
	391	1	2	16.40855		8.88083		11.85077	
	392	1	2	16.48586		9.09706		12.09703	
	393	1	2	16.77763		8.96030		11.99937	
	394	1	2	17.10848		9.02190		11.98886	
	395	1	2	17.05999		9.21169		12.26272	
	396	1	2	16.98700		8.88613		12.30802	
	397	1	2	16.88843		8.59280		12.44072	
	398	1	2	16.64504		8.82163		12.39865	
	399	1	2	16.52013		8.73189		12.69817	
	400	1	2	16.57598		8.46013		12.50739	
	401	1	1	16.87297		8.30297		12.48592	
	402	1	1	17.12790		8.11586		12.37029	
	403	1	1	17.35003		7.88889		12.48213	
	404	1	1	17.38569		7.78247		12.79958	
	405	1	1	17.45605		7.49817		12.63347	
	406	1	1	17.42672		7.16629		12.58489	
	407	1	1	17.69427		7.08719		12.39641	
	408	1	1	17.88702		7.23213		12.63137	
	409	1	1	17.65532		7.35692		12.84140	
	410	1	1	17.95185		7.23607		12.94549	
	411	1	1	18.03620		7.17704		12.62491	
	412	1	1	18.01299		7.44353		12.82938	
	413	1	1	17.82575		7.38997		12.55472	
	414	1	1	17.54837		7.46168		12.37785	
	415	1	1	17.70379		7.63707		12.61961	
	416	1	1	17.37304		7.57494		12.60917	
	417	1	1	17.39843		7.52447		12.27724	
	418	1	1	17.63136		7.28629		12.22850	
	419	1	1	17.50804		6.97319		12.23991	
	420	1	1	17.75338		7.10174		12.04846	
	421	1	1	17.92991		6.86922		12.21621	
	422	1	1	18.10956		7.15353		12.23226	
	423	1	1	17.96513		7.43019		12.35862	
	424	1	1	18.14493		7.36125		12.63482	
	425	1	1	18.13828		7.53995		12.92011	
	426	1	1	18.28275		7.27407		12.77245	
	427	1	1	18.52341		7.03903		12.75792	
	428	1	1	18.69387		6.98462		13.04314	
	429	1	1	18.64265		6.87270		12.72974	
	430	1	1	18.75950		6.77712		12.42878	
	431	1	1	18.93856		6.57055		12.23222	
	432	1	1	18.79814		6.87065		12.17228	
	433	1	1	18.59259		7.12692		12.24604	
	434	1	1	18.30369		6.96426		12.30477	
	435	1	1	18.52551		6.90533		12.55113	
	436	1	1	18.74538		6.71030		12.71541	
	437	1	1	18.63147		6.39349		12.71022	
	438	1	1	18.95817		6.47490		12.71384	
	439	1	1	19.09609		6.16861		12.73689	
	440	1	1	19.28128		6.44840		12.70884	
	441	1	1	19.25946		6.13229		12.82271	
	442	1	1	19.41988		5.89152		12.65049	
	443	1	1	19.75309		5.92929		12.62022	
	444	1	1	19.59539		5.64457		12.70645	
	445	1	1	19.46542		5.86912		12.49185	
	446	1	1	19.59684		6.16855		12.41161	
	447	1	1	19.71538		6.30703		12.12852	
	448	1	1	19.46431		6.51388		12.04165	
	449	1	1	19.17670		6.35126		12.10648	
	450	1	1	19.50359		6.31143		12.03634	
	451	1	1	19.48535		6.21307		12.35784	
	452	1	1	19.36181		6.39402		12.61350	
	453	1	1	19.48030		6.08517		12.67632	
	454	1	1	19.69853		6.07262		12.42022	
	455	1	1	20.01561		6.12996		12.51788	
	456	1	1	20.20216		5.95556		12.73732	
	457	1	1	20.34444		6.18621		12.53750	
	458	1	1	20.30965		5.86560		12.63429	
	459	1	1	20.35471		5.60774		12.84605	
	460	1	1	20.61738		5.66644		13.04835	
	461	1	1	20.37614		5.88886		13.12385	
	462	1	1	20.05696		5.99489		13.13964	
	463	1	1	20.15646		6.06710		13.45309	
	464	1	1	20.35343		5.92905		13.68871	
	465	1	1	20.12741		5.96362		13.44155	
	466	1	1	20.03276		5.75149		13.19780	
	467	1	1	19.77035		5.54175		13.22059	
	468	1	1	19.70133		5.40730		12.91972	
	469	1	1	19.40169		5.30438		13.03369	
	470	1	1	19.18831		5.09345		12.88091	
	471	1	1	19.33506		5.19445		12.59520	
	472	1	1	19.47992		4.94394		12.76733	
	473	1	1	19.60087		5.09972		12.49443	
	474	1	1	19.67083		5.33725		12.72259	
	475	1	1	19.83264		5.22346		12.99506	
	476	1	1	19.99573		5.51298		12.94078	
	477	1	1	19.91065		5.80656		12.79956	
	478	1	1	19.77864		5.52885		12.66237	
	479	1	1	19.47547		5.54880		12.80748	
	480	1	1	19.47476		5.23964		12.67412	
	481	1	1	19.20439		5.28992		12.47986	
	482	1	1	18.87713		5.36748		12.46377	
	483	1	1	18.82364		5.46727		12.14668	
	484	1	1	18.98720		5.17447		12.17643	
	485	1	1	19.15274		4.98880		11.94950	
	486	1	1	19.20071		5.29733		12.07549	
	487	1	1	19.15864		5.09806		12.34361	
	488	1	1	19.11234		5.40139		12.48222	
	489	1	1	18.81398		5.32776		12.61979	
	490	1	1	18.69810		5.50645		12.88058	
	491	1	1	18.87049		5.70160		13.09404	
	492	1	1	18.91455		5.50341		13.36265	
	493	1	1	19.22380		5.48119		13.23136	
	494	1	1	19.28361		5.64541		12.94357	
	495	1	1	19.53244		5.82355		13.08399	
	496	1	1	19.55671		5.78592		12.75028	
	497	1	1	19.75840		5.54679		12.87481	
	498	1	1	19.51910		5.49112		12.64459	
	499	1	1	19.69927		5.34856		12.39845	
	500	1	1	19.95624		5.56251		12.43797	
	501	1	1	20.02313		5.63838		12.75913	
	502	1	1	20.00191		5.47316		13.05174	
	503	1	1	20.13128		5.17076		13.12377	
	504	1	1	20.34133		5.02244		12.90640	
	505	1	1	20.59713		4.80363		12.91387	
	506	1	1	20.67749		5.00689		13.16999	
	507	1	1	20.84227		5.28709		13.25777	
	508	1	1	20.61926		5.05377		13.35364	
	509	1	1	20.75921		4.94599		13.64029	
	510	1	1	20.60302		4.72771		13.84358	
	511	1	1	20.62321		4.86424		13.53646	
	512	1	1	20.92261		4.97659		13.64181	
	513	1	1	20.94341		4.66554		13.76901	
	514	1	1	21.18135		4.43369		13.82381	
	515	1	1	21.44343		4.63372		13.89214	
	516	1	1	21.64075		4.75495		14.13655	
	517	1	1	21.54844		5.07874		14.13935	
	518	1	1	21.36328		5.18341		13.87833	
	519	1	1	21.29718		4.85441		13.85077	
	520	1	1	21.02771		4.94852		14.02938	
	521	1	1	20.92298		4.73244		14.26541	
	522	1	1	20.67126		4.73578		14.48901	
	523	1	1	20.84792		4.46563		14.58482	
	524	1	1	20.89670		4.51841		14.91376	
	525	1	1	20.83400		4.33927		14.63565	
	526	1	1	20.76239		4.01155		14.60672	
	527	1	1	20.92442		3.86699		14.86405	
	528	1	1	20.96203		4.16222		15.02152	
	529	1	1	20.68529		4.27200		15.17879	
	530	1	1	20.97607		4.34938		15.02769	
	531	1	1	21.11225		4.29265		15.33035	
	532	1	1	20.89767		4.51825		15.45853	
	533	1	1	20.57845		4.61578		15.41432	
	534	1	1	20.39511		4.89638		15.38239	
	535	1	1	20.44962		4.83790		15.05531	
	536	1	1	20.70616		4.63383		14.97844	
	537	1	1	21.02639		4.58040		14.88919	
	538	1	1	21.10036		4.64297		15.21165	
	539	1	1	21.23229		4.61860		14.90283	
	540	1	1	21.22232		4.37013		14.67583	
	541	1	1	21.03781		4.64481		14.73803	
	542	1	1	21.28453		4.76586		14.54349	
	543	1	1	21.15234		4.80080		14.23580	
	544	1	1	21.10993		4.90719		14.55243	
	545	1	1	21.08184		5.23409		14.47681	
	546	1	1	21.28396		4.96493		14.46853	
	547	1	1	21.48911		4.77073		14.28532	
	548	1	1	21.28972		5.03660		14.23126	
	549	1	1	21.35866		4.71705		14.31189	
	550	1	1	21.29097		4.46031		14.51893	
	551	1	1	21.24752		4.72542		14.72190	
	552	1	1	21.48433		4.68939		14.48527	
	553	1	1	21.81247		4.74227		14.43148	
	554	1	1	22.06146		4.85370		14.23412	
	555	1	1	21.76084		4.71465		14.29463	
	556	1	1	21.85730		4.75324		13.97436	
	557	1	1	21.91828		4.43345		13.88839	
	558	1	1	22.18563		4.60660		13.77923	
	559	1	1	22.27629		4.28519		13.82219	
	560	1	1	22.24953		4.61138		13.90127	
	561	1	1	22.00391		4.38107		13.90162	
	562	1	1	21.78735		4.37814		13.64382	
	563	1	1	21.73008		4.06636		13.53033	
	564	1	1	21.85334		4.12553		13.22264	
	565	1	1	22.03374		3.86616		13.33905	
	566	1	1	22.05317		3.56715		13.18548	
	567	1	1	22.07909		3.78696		12.93175	
	568	1	1	22.33644		3.65623		13.10510	
	569	1	1	22.30734		3.77895		13.41729	
	570	1	1	22.30959		3.49883		13.23049	
	571	1	1	22.63879		3.46275		13.29125	
	572	1	1	22.73882		3.28997		13.56237	
	573	1	1	23.04660		3.42411		13.53697	
	574	1	1	23.26837		3.19694		13.42482	
	575	1	1	23.36178		3.45544		13.61929	
	576	1	1	23.26801		3.52933		13.93412	
	577	1	1	23.21764		3.81806		13.76839	
	578	1	1	23.10645		4.03924		13.54017	
	579	1	1	23.07666		3.89586		13.84335	
	580	1	1	22.79632		3.90339		14.02968	
	581	1	1	23.04958		3.69507		13.95330	
	582	1	1	23.33073		3.62588		13.78145	
	583	1	1	23.00429		3.57215		13.71883	
	584	1	1	22.79179		3.31990		13.78651	
	585	1	1	22.75063		3.00250		13.89108	
	586	1	1	23.06619		2.90409		13.82700	
	587	1	1	23.25324		2.66666		13.97535	
	588	1	1	23.22530		2.68896		13.64055	
	589	1	1	22.89746		2.62705		13.68587	
	590	1	1	23.09616		2.55215		13.94717	
	591	1	1	22.83919		2.76882		13.92742	
	592	1	1	22.63633		2.89475		13.69002	
	593	1	1	22.55335		2.81817		14.00723	
	594	1	1	22.62956		3.09924		13.83822	
	595	1	1	22.48038		2.81366		13.74044	
	596	1	1	22.42496		2.96534		13.44499	
	597	1	1	22.16988		2.94562		13.22610	
	598	1	1	22.39099		2.91052		12.97461	
	599	1	1	22.09509		2.89148		12.81508	
	600	1	1	22.10070		3.16327		12.61641	
	601	1	2	22.33248		2.99942		12.43530	
	602	1	2	22.09389		2.78545		12.33206	
	603	1	2	22.10797		2.71438		12.66087	
	604	1	2	22.17862		2.57509		12.36259	
	605	1	2	21.89632		2.51769		12.18831	
	606	1	2	21.71647		2.53860		12.47218	
	607	1	2	21.71227		2.20603		12.41977	
	608	1	2	21.40751		2.11597		12.30851	
	609	1	2	21.11218		1.99380		12.41443	
	610	1	2	20.93976		2.28066		12.37760	
	611	1	2	20.87989		2.59397		12.48538	
	612	1	2	20.86448		2.84757		12.70633	
	613	1	2	20.55023		2.95330		12.64773	
	614	1	2	20.31246		2.87714		12.42182	
	615	1	2	20.39113		2.55572		12.35963	
	616	1	2	20.11526		2.63018		12.18152	
	617	1	2	19.94511		2.44356		11.95883	
	618	1	2	20.14962		2.26967		12.16207	
	619	1	2	20.36945		2.39662		11.94088	
	620	1	2	20.66450		2.23447		11.94529	
	621	1	2	20.93906		2.20231		11.75306	
	622	1	2	21.21103		2.01220		11.81015	
	623	1	2	21.15740		1.69062		11.89428	
	624	1	2	21.44496		1.51663		11.91440	
	625	1	2	21.37787		1.19019		11.96241	
	626	1	2	21.68963		1.06343		11.95230	
	627	1	2	21.91782		1.30525		11.89919	
	628	1	2	21.91493		1.09336		12.16084	
	629	1	2	21.83506		0.78073		12.06462	
	630	1	2	22.05923		0.93308		12.26439	
	631	1	2	22.04473		0.59845		12.23003	
	632	1	2	21.71104		0.62915		12.19723	
	633	1	2	21.49861		0.89027		12.18947	
	634	1	2	21.28944		1.00936		11.95403	
	635	1	2	21.30968		1.24372		11.71313	
	636	1	2	21.48513		0.96803		11.63202	
	637	1	2	21.16472		1.06225		11.58931	
	638	1	2	21.42912		1.15642		11.40333	
	639	1	2	21.61237		1.12336		11.12280	
	640	1	2	21.88478		1.28583		11.00982	
	641	1	2	21.66592		1.52067		10.90823	
	642	1	2	21.42030		1.73480		10.82347	
	643	1	2	21.26870		1.69776		10.52511	
	644	1	2	21.11689		1.96663		10.65939	
	645	1	2	21.19643		1.88090		10.97513	
	646	1	2	20.99901		1.60889		10.99526	
	647	1	2	21.22257		1.36431		11.05503	
	648	1	2	21.12505		1.04208		11.05960	
	649	1	2	21.26099		0.79807		11.24761	
	650	1	2	21.52059		0.62696		11.11840	
	651	1	2	21.41131		0.89425		10.94524	
	652	1	2	21.18572		0.66920		10.83648	
	653	1	2	21.07280		0.84584		10.57301	
	654	1	2	21.33698		1.05178		10.53890	
	655	1	2	21.39490		1.08378		10.86904	
	656	1	2	21.14329		1.19771		10.67647	
	657	1	2	20.87183		1.37466		10.58499	
	658	1	2	20.74015		1.59943		10.79831	
	659	1	2	20.62153		1.86791		10.63334	
	660	1	2	20.92835		1.79199		10.51729	
	661	1	2	20.78353		1.80906		10.21380	
	662	1	2	20.63673		1.53481		10.08493	
	663	1	2	20.85948		1.28343		10.10855	
	664	1	2	20.91834		1.60162		10.20162	
	665	1	2	21.04579		1.91288		10.18613	
	666	1	2	21.10119		2.23424		10.26996	
	667	1	2	21.14662		2.55876		10.19257	
	668	1	2	20.96998		2.35409		10.39326	
	669	1	2	21.28465		2.40954		10.49946	
	670	1	2	21.42044		2.16761		10.69025	
	671	1	2	21.51211		2.46836		10.81074	
	672	1	2	21.78417		2.30455		10.69886	
	673	1	2	22.05685		2.49355		10.75625	
	674	1	2	22.17306		2.28901		10.99714	
	675	1	2	22.22380		2.51537		11.24117	
	676	1	2	22.30516		2.45980		10.91921	
	677	1	2	22.42321		2.24325		11.14842	
	678	1	2	22.42960		2.22429		10.81231	
	679	1	2	22.41546		2.49916		10.61837	
	680	1	2	22.22943		2.26641		10.77518	
	681	1	2	22.05135		1.98564		10.72204	
	682	1	2	21.93036		2.25792		10.87886	
	683	1	2	22.11092		2.52272		10.98206	
	684	1	2	21.95139		2.51932		11.27855	
	685	1	2	22.16661		2.77156		11.33702	
	686	1	2	22.16615		2.99377		11.08406	
	687	1	2	21.91382		2.78790		11.16958	
	688	1	2	21.91306		2.82020		10.83443	
	689	1	2	21.80299		3.12741		10.91735	
	690	1	2	22.03415		3.11201		10.67302	
	691	1	2	21.75397		2.94581		10.75814	
	692	1	2	21.68300		2.70236		10.97965	
	693	1	2	21.71559		2.98837		11.15430	
	694	1	2	21.56642		3.05554		11.44859	
	695	1	2	21.83785		3.13063		11.26405	
	696	1	2	21.50915		3.07235		11.22012	
	697	1	2	21.19723		2.96343		11.15527	
	698	1	2	20.98650		2.87339		11.40195	
	699	1	2	20.88235		2.55833		11.45905	
	700	1	2	20.64491		2.55758		11.22032	
	701	1	2	20.43450		2.38186		11.41582	
	702	1	2	20.35343		2.58799		11.16223	
	703	1	2	20.50739		2.68330		11.44610	
	704	1	2	20.24965		2.86933		11.55715	
	705	1	2	20.52836		3.05316		11.60072	
	706	1	2	20.83025		3.15580		11.70886	
	707	1	2	21.09725		2.95567		11.75391	
	708	1	2	21.18023		3.19300		11.52995	
	709	1	2	21.44100		3.40572		11.54091	
	710	1	2	21.69225		3.62478		11.58839	
	711	1	2	21.36907		3.64077		11.68150	
	712	1	2	21.29045		3.37033		11.86603	
	713	1	2	21.00731		3.33652		12.04507	
	714	1	2	21.13074		3.04053		12.14765	
	715	1	2	20.86341		3.12432		12.33441	
	716	1	2	21.06486		3.13892		12.60380	
	717	1	2	21.20000		3.04545		12.89769	
	718	1	2	20.96396		2.97161		13.12617	
	719	1	2	20.76929		2.81124		13.34922	
	720	1	2	20.79137		2.76115		13.68144	
	721	1	2	20.52243		2.56939		13.74677	
	722	1	2	20.67814		2.28757		13.84525	
	723	1	2	20.44923		2.05943		13.93970	
	724	1	2	20.42984		2.27830		13.68458	
	725	1	2	20.21888		2.48515		13.52310	
	726	1	2	20.12926		2.16797		13.59190	
	727	1	2	20.00887		2.05471		13.29857	
	728	1	2	20.12167		2.14347		12.99399	
	729	1	2	20.00761		2.34501		13.23841	
	730	1	2	20.33238		2.28627		13.17176	
	731	1	2	20.63655		2.17116		13.25892	
	732	1	2	20.56542		1.92725		13.47987	
	733	1	2	20.34057		1.67742		13.49971	
	734	1	2	20.12984		1.43294		13.59557	
	735	1	2	20.16027		1.18505		13.82138	
	736	1	2	20.26537		1.23466		14.13739	
	737	1	2	20.57558		1.22080		14.00723	
	738	1	2	20.33097		1.43808		14.08672	