#-----------------------------------------------------------------------------------           
# NANOPOLY - POLYMER NANOCOMPOSITE STRUCTURAL DATA FILE                                        
#-----------------------------------------------------------------------------------           
# FILENAME:  test_structure.in                                                                  
# DATE: 2021-08-10                                                                                
#-----------------------------------------------------------------------------------           
                                                                                               
800 atoms                                                             
799 bonds                                                             
                                                                                               
2 atom types                                      
1 bond types                                            
                                                                                    
0.0000 100.0000 xlo xhi            
0.0000 100.0000 ylo yhi            
0.0000 100.0000 zlo zhi            
                                                                                    
                                                                                    
# Types have been converted numerically as follows:                                 
# 1 a
# 2 b
                                                                                    
Masses                                                                              
                                                                                    
1	1.0
2	0.5

Atoms                                                                               

	1	1	1	0.00000		21.00000		96.00000	
	2	1	1	0.88964		21.36164		96.58087	
	3	1	1	0.72991		22.45049		96.80120	
	4	1	1	0.82160		21.74799		97.67168	
	5	1	1	0.21150		21.67534		98.61091	
	6	1	1	0.98296		22.09596		99.30917	
	7	1	1	1.25845		23.09116		98.86946	
	8	1	1	1.75884		22.93368		97.87727	
	9	1	1	2.43656		22.03954		97.90650	
	10	1	1	2.75529		21.22436		98.60903	
	11	1	1	3.74771		21.74539		98.66617	
	12	1	1	4.80262		21.62789		99.03087	
	13	1	1	5.05915		22.71888		98.97114	
	14	1	1	4.28619		23.38870		98.50906	
	15	1	1	4.37603		24.22443		97.76533	
	16	1	1	3.85843		24.93757		98.46042	
	17	1	1	3.15284		24.93557		99.33323	
	18	1	1	4.02308		25.64426		99.32402	
	19	1	1	3.66587		26.70751		99.36314	
	20	1	1	3.77299		27.43283		98.51338	
	21	1	1	4.22522		28.14329		99.25526	
	22	1	1	4.51118		29.22551		99.33694	
	23	1	1	4.02778		29.17606		98.32524	
	24	1	1	2.91560		29.03066		98.28559	
	25	1	1	3.28124		30.04821		97.98466	
	26	1	1	3.28249		30.84376		97.19299	
	27	1	1	2.29284		30.80717		97.72110	
	28	1	1	1.87549		30.20098		96.87374	
	29	1	1	1.13375		29.71837		96.18341	
	30	1	1	1.58361		28.79549		95.73001	
	31	1	1	1.73976		29.70918		95.09721	
	32	1	1	0.93842		30.16018		94.45371	
	33	1	1	1.77159		30.88025		94.23694	
	34	1	1	2.25348		30.95951		95.24746	
	35	1	1	2.94301		30.17272		94.84108	
	36	1	1	3.37156		29.13820		94.76519	
	37	1	1	3.97887		28.27334		94.38727	
	38	1	1	3.56316		28.48513		93.36650	
	39	1	1	3.21400		28.31437		92.31361	
	40	1	1	2.19173		28.61754		92.66390	
	41	1	1	2.65800		29.40301		92.01176	
	42	1	1	2.18179		30.13119		91.30280	
	43	1	1	2.00000		30.49814		92.34776	
	44	1	1	1.25242		30.71357		93.15668	
	45	1	1	0.35718		30.37303		92.57169	
	46	1	1	0.87724		29.49069		92.11270	
	47	1	1	1.65800		29.06286		91.42932	
	48	1	1	0.98481		29.47858		90.63330	
	49	1	1	0.75465		30.39813		90.03238	
	50	1	1	1.10851		31.37593		89.61008	
	51	1	1	1.94523		31.04229		88.94059	
	52	1	1	1.09765		31.52274		88.38344	
	53	1	1	1.08234		30.40091		88.35304	
	54	1	1	0.41174		30.68188		87.49805	
	55	1	1	0.17404		31.49299		86.75965	
	56	1	1	1.29632		31.48827		86.77026	
	57	1	1	2.26974		30.93067		86.73591	
	58	1	1	1.63567		30.07132		86.39078	
	59	1	1	0.70577		29.79857		85.82461	
	60	1	1	0.19355		29.30824		84.95464	
	61	1	1	0.45514		30.37027		84.70300	
	62	1	1	1.57742		30.37525		84.69242	
	63	1	1	2.18555		29.46630		84.44014	
	64	1	1	1.26555		28.84372		84.28002	
	65	1	1	2.02186		28.13557		84.71148	
	66	1	1	2.36080		28.41093		83.67758	
	67	1	1	2.66530		28.84118		82.68672	
	68	1	1	3.46945		29.49317		82.25325	
	69	1	1	4.19897		30.28886		81.94611	
	70	1	1	4.86327		29.60925		82.54318	
	71	1	1	5.47842		30.27864		83.20132	
	72	1	1	5.22669		29.59937		84.05856	
	73	1	1	6.13895		30.20666		84.30070	
	74	1	1	6.33044		30.91786		85.14756	
	75	1	1	7.01401		30.99386		84.26065	
	76	1	1	6.65710		30.79614		83.21510	
	77	1	1	6.32157		31.44272		82.36129	
	78	1	1	5.21165		31.49827		82.20431	
	79	1	1	4.11262		31.72252		82.16560	
	80	1	1	3.33794		31.94140		82.94766	
	81	1	1	3.87877		32.86631		82.61346	
	82	1	1	3.27573		33.00764		83.54942	
	83	1	1	3.71897		32.40357		84.38505	
	84	1	1	3.66773		32.97370		85.35044	
	85	1	1	4.40118		33.62332		84.80300	
	86	1	1	4.39129		34.69508		84.47001	
	87	1	1	4.84334		35.62557		84.03470	
	88	1	1	5.86301		36.06312		84.20343	
	89	1	1	5.48018		35.58809		85.14547	
	90	1	1	6.34510		34.87412		85.18781	
	91	1	1	7.40318		34.51165		85.09434	
	92	1	1	7.67731		33.57860		85.65463	
	93	1	1	8.61835		33.00536		85.44135	
	94	1	1	9.52317		32.49917		85.87114	
	95	1	1	10.62240		32.61277		85.67507	
	96	1	1	10.56227		33.66311		86.06600	
	97	1	1	11.00259		33.13238		86.95149	
	98	1	1	11.75922		32.31641		87.09758	
	99	1	1	12.04652		31.28283		87.42745	
	100	1	1	13.13254		31.46370		87.64535	
	101	1	1	13.08519		30.34699		87.74713	
	102	1	1	14.10136		29.97710		87.44677	
	103	1	1	14.99351		30.39523		86.90930	
	104	1	1	15.40630		31.43412		86.80940	
	105	1	1	16.12892		30.76824		86.26712	
	106	1	1	15.61079		30.00828		85.62397	
	107	1	1	14.97563		30.90692		85.84455	
	108	1	1	14.30661		30.17602		85.31744	
	109	1	1	13.59602		29.82706		86.11302	
	110	1	1	12.84623		30.56304		85.71833	
	111	1	1	12.11609		31.35914		85.41371	
	112	1	1	13.19133		31.60886		85.21085	
	113	1	1	13.58051		31.17095		84.25355	
	114	1	1	12.81606		30.75427		83.54529	
	115	1	1	13.31851		29.75604		83.64878	
	116	1	1	13.66222		29.66955		82.58387	
	117	1	1	13.43639		28.59155		82.79968	
	118	1	1	14.51754		28.29120		82.82336	
	119	1	1	14.80032		27.37152		83.40119	
	120	1	1	14.80586		26.27002		83.18599	
	121	1	1	14.34128		26.48147		84.18554	
	122	1	1	15.39387		26.58667		84.56055	
	123	1	1	15.43131		26.91349		85.63359	
	124	1	1	15.85641		27.94552		85.75135	
	125	1	1	15.08182		28.52445		85.18171	
	126	1	1	14.59152		27.75016		84.53384	
	127	1	1	13.98992		28.52221		83.98459	
	128	1	1	13.67025		29.25519		84.77211	
	129	1	1	13.68169		28.52407		85.62357	
	130	1	1	13.78703		28.15725		86.67903	
	131	1	1	12.76702		28.49716		87.00106	
	132	1	1	13.50497		28.68961		87.82449	
	133	1	1	14.38066		28.01201		88.00801	
	134	1	1	14.69886		27.24434		88.76238	
	135	1	1	14.35740		26.63004		89.63741	
	136	1	1	13.54486		26.71408		88.86775	
	137	1	1	13.14373		26.81217		89.91136	
	138	1	1	12.52545		25.88881		90.06882	
	139	1	1	12.25687		25.99919		88.98469	
	140	1	1	12.05293		26.90927		88.36034	
	141	1	1	12.90006		26.66190		87.66693	
	142	1	1	13.35817		26.57925		86.64568	
	143	1	1	13.85055		25.78107		87.26221	
	144	1	1	14.77499		25.53902		86.67358	
	145	1	1	14.24048		26.11283		85.87065	
	146	1	1	13.87982		27.02168		85.31969	
	147	1	1	13.05135		27.33639		84.63103	
	148	1	1	12.10164		26.93663		84.18619	
	149	1	1	11.17432		26.76405		83.57796	
	150	1	1	10.86608		27.09647		82.55125	
	151	1	1	9.81756		27.46966		82.69607	
	152	1	1	9.78918		27.92523		81.67075	
	153	1	1	9.56490		28.78085		82.36158	
	154	1	1	10.51986		29.35140		82.51050	
	155	1	1	10.99625		29.12219		83.50053	
	156	1	1	11.98362		29.41894		83.05704	
	157	1	1	11.93158		29.95330		82.07144	
	158	1	1	12.59248		29.76301		81.18451	
	159	1	1	12.43051		29.61971		80.08321	
	160	1	1	11.69571		29.05584		79.44936	
	161	1	1	11.91239		30.04282		78.96092	
	162	1	1	11.61396		30.32485		77.91639	
	163	1	1	12.57295		29.74203		77.93404	
	164	1	1	13.45110		30.42887		77.80461	
	165	1	1	13.92139		31.36542		77.40294	
	166	1	1	15.04264		31.32079		77.42419	
	167	1	1	14.99175		31.50933		76.31897	
	168	1	1	15.77301		32.02835		75.70262	
	169	1	1	16.36756		32.96267		75.52037	
	170	1	1	16.21475		34.07451		75.51005	
	171	1	1	16.91783		34.94932		75.51603	
	172	1	1	17.22503		35.81928		76.15513	
	173	1	1	18.05129		36.46140		75.74939	
	174	1	1	18.75617		37.32788		75.85899	
	175	1	1	19.13317		38.36081		76.08385	
	176	1	1	19.76854		38.53966		76.99157	
	177	1	1	20.73739		38.47997		76.42817	
	178	1	1	21.08142		39.38490		76.99598	
	179	1	1	21.67569		39.80300		76.14059	
	180	1	1	22.13566		40.29567		77.03800	
	181	1	1	21.73705		41.22795		77.51926	
	182	1	1	21.22870		41.78489		78.35055	
	183	1	1	21.80615		41.66077		79.30491	
	184	1	1	21.66898		40.60277		79.65343	
	185	1	1	22.73227		40.25160		79.57774	
	186	1	1	22.21526		39.28755		79.82863	
	187	1	1	21.19903		38.89943		79.55243	
	188	1	1	20.32509		38.21407		79.39068	
	189	1	1	19.25230		37.92769		79.55426	
	190	1	1	18.23490		37.92783		79.08041	
	191	1	1	18.04545		37.81874		77.97957	
	192	1	1	17.61786		38.28167		77.05085	
	193	1	1	17.23368		37.23145		77.14615	
	194	1	1	16.19053		37.41942		77.51514	
	195	1	1	16.71352		36.97311		78.40224	
	196	1	1	16.19928		35.99852		78.18924	
	197	1	1	16.84523		35.20043		77.73596	
	198	1	1	17.60899		34.81232		78.46100	
	199	1	1	18.63296		35.26184		78.55618	
	200	1	1	18.99783		35.30471		79.61669	
	201	1	1	19.60387		34.58034		80.22304	
	202	1	1	20.24013		35.31877		80.77940	
	203	1	1	19.23989		35.26934		81.28609	
	204	1	1	18.70188		34.28975		81.38902	
	205	1	1	18.30563		33.91017		80.40996	
	206	1	1	17.87030		33.21198		79.64664	
	207	1	1	17.97979		32.53836		78.75563	
	208	1	1	17.65738		32.85900		77.72953	
	209	1	1	18.55442		32.76087		77.06219	
	210	1	1	18.66918		33.65517		76.39382	
	211	1	1	18.25838		33.61477		75.35015	
	212	1	1	18.99727		34.37541		74.98255	
	213	1	1	19.02165		35.48919		75.11874	
	214	1	1	19.76465		35.15387		75.89020	
	215	1	1	20.16445		35.90934		75.16283	
	216	1	1	19.73561		36.33962		76.10655	
	217	1	1	20.72178		35.90398		76.41853	
	218	1	1	20.80338		35.65840		77.51063	
	219	1	1	20.44444		34.65294		77.16444	
	220	1	1	20.04039		34.20296		78.10991	
	221	1	1	20.31111		33.21655		77.64802	
	222	1	1	20.21047		32.54582		76.75379	
	223	1	1	21.05683		32.49816		76.01824	
	224	1	1	21.11585		31.46214		76.44581	
	225	1	1	20.92531		31.90031		77.46136	
	226	1	1	21.37002		31.10005		78.11057	
	227	1	1	22.10045		31.85350		78.50861	
	228	1	1	21.99227		32.41733		79.47299	
	229	1	1	21.64266		33.48094		79.55145	
	230	1	1	22.14952		33.15682		78.60399	
	231	1	1	22.29538		33.94428		77.81767	
	232	1	1	22.03248		33.03124		77.22026	
	233	1	1	21.65089		33.92386		76.65700	
	234	1	1	22.30644		34.72061		76.21530	
	235	1	1	22.88823		33.95830		75.63215	
	236	1	1	22.67688		34.42693		74.63447	
	237	1	1	21.75023		34.94961		74.99194	
	238	1	1	22.45807		35.71476		75.40806	
	239	1	1	22.48611		36.03867		74.33385	
	240	1	1	23.24178		36.86687		74.38563	
	241	1	1	24.11152		37.14416		75.03856	
	242	1	1	25.05902		36.87159		74.50229	
	243	1	1	25.07226		37.39907		73.51171	
	244	1	1	24.85229		37.94307		72.55499	
	245	1	1	23.82013		38.10942		72.96318	
	246	1	1	23.14053		38.66197		73.66495	
	247	1	1	23.23621		39.00263		72.59984	
	248	1	1	23.73669		38.97723		71.59559	
	249	1	1	23.71585		39.98274		71.09743	
	250	1	1	23.49555		39.79444		70.01315	
	251	1	1	22.46855		40.24603		69.98181	
	252	1	1	23.01980		40.98258		70.62467	
	253	1	1	22.81735		41.82653		69.91304	
	254	1	1	21.76258		42.03592		69.59169	
	255	1	1	20.91551		41.56395		69.02657	
	256	1	1	20.98647		40.74892		68.25824	
	257	1	1	20.68381		41.31252		67.33607	
	258	1	1	20.82540		41.00490		66.26603	
	259	1	1	20.61760		39.93224		66.52269	
	260	1	1	19.75320		40.61661		66.73269	
	261	1	1	19.12175		39.69436		66.63086	
	262	1	1	18.10710		39.23151		66.75694	
	263	1	1	17.29321		38.72339		66.17466	
	264	1	1	16.88598		37.96588		66.89577	
	265	1	1	17.48726		37.30805		66.21360	
	266	1	1	18.37854		37.82247		66.66151	
	267	1	1	19.42313		37.66417		66.28280	
	268	1	1	19.76225		37.56783		65.21727	
	269	1	1	20.72799		37.84769		64.71859	
	270	1	1	20.72334		36.72773		64.79148	
	271	1	1	20.40451		35.65182		64.77127	
	272	1	1	20.32900		34.58813		64.42126	
	273	1	1	19.33118		34.92339		64.81065	
	274	1	1	19.08339		34.49753		65.81906	
	275	1	1	18.37443		34.10014		65.04504	
	276	1	1	17.98594		34.85238		64.30825	
	277	1	1	18.74125		34.52221		63.54658	
	278	1	1	18.64169		34.95258		62.51483	
	279	1	1	19.09687		34.63127		61.54054	
	280	1	1	19.18685		33.74340		60.85993	
	281	1	1	19.75404		34.38545		60.13486	
	282	1	1	20.80508		34.30640		59.74923	
	283	1	1	21.82849		33.94022		60.02884	
	284	1	1	22.49459		34.26105		60.87326	
	285	1	1	23.56874		34.51716		61.07384	
	286	1	1	24.62398		34.82438		60.84639	
	287	1	1	25.31319		33.94060		60.90613	
	288	1	1	24.73609		33.61931		59.99873	
	289	1	1	24.62344		34.61323		59.48972	
	290	1	1	25.16499		33.94267		58.77088	
	291	1	1	24.06746		33.99793		58.54280	
	292	1	1	23.08252		34.15396		58.02783	
	293	1	1	23.60260		33.21095		57.71176	
	294	1	1	23.41373		32.78240		56.69180	
	295	1	1	24.45478		33.18302		56.56782	
	296	1	1	24.88082		33.32980		57.59572	
	297	1	1	25.93899		33.25435		57.96209	
	298	1	1	26.80555		32.58053		57.72823	
	299	1	1	27.30767		33.31568		58.41168	
	300	1	1	27.70028		33.00738		59.41689	
	301	1	1	28.81203		32.88795		59.51377	
	302	1	1	28.91396		32.19355		60.38960	
	303	1	1	28.43211		31.18816		60.51863	
	304	1	1	29.42804		30.69714		60.68195	
	305	1	1	29.87492		29.81404		61.21116	
	306	1	1	29.05731		30.36571		61.74672	
	307	1	1	28.05364		30.85127		61.87524	
	308	1	1	27.83159		31.80273		61.32291	
	309	1	1	26.74550		31.91639		61.58204	
	310	1	1	26.02453		31.45102		62.30542	
	311	1	1	26.14458		32.56681		62.32129	
	312	1	1	25.68527		32.27618		61.33934	
	313	1	1	25.11767		31.97592		60.41884	
	314	1	1	24.29382		32.11544		61.16814	
	315	1	1	23.80162		33.11457		61.02990	
	316	1	1	23.53863		33.56369		60.03553	
	317	1	1	22.97657		33.66387		59.06925	
	318	1	1	22.15793		33.12395		58.52338	
	319	1	1	21.73449		33.59859		57.59869	
	320	1	1	21.88455		33.96641		56.54900	
	321	1	1	22.54707		34.63252		57.16300	
	322	1	1	21.82444		35.45356		57.41466	
	323	1	1	22.44352		35.78267		58.29106	
	324	1	1	22.27614		35.71333		59.39869	
	325	1	1	22.74410		34.69629		59.47809	
	326	1	1	23.67467		35.29663		59.66052	
	327	1	1	24.01738		35.36876		58.59422	
	328	1	1	25.07429		35.74598		58.61119	
	329	1	1	26.08967		35.68850		58.13647	
	330	1	1	27.04025		35.22650		57.75885	
	331	1	1	26.35761		35.00808		56.89518	
	332	1	1	25.57955		35.81684		56.88176	
	333	1	1	25.32986		34.86782		57.42643	
	334	1	1	24.57178		35.15863		56.65157	
	335	1	1	23.69142		34.96325		57.31974	
	336	1	1	23.62949		34.20099		56.49830	
	337	1	1	23.13970		34.85725		55.73079	
	338	1	1	22.77905		35.74789		55.15085	
	339	1	1	23.45753		36.58943		54.84897	
	340	1	1	22.35226		36.77024		54.92203	
	341	1	1	21.53528		36.92411		55.67603	
	342	1	1	22.18203		37.80394		55.93541	
	343	1	1	22.46097		37.51254		56.98275	
	344	1	1	22.24953		38.05384		57.94292	
	345	1	1	22.90169		37.29692		58.45419	
	346	1	1	21.79881		37.11230		58.35812	
	347	1	1	21.78381		37.99449		59.05178	
	348	1	1	21.01305		37.49207		59.69455	
	349	1	1	20.17944		36.74129		59.72717	
	350	1	1	19.22429		36.54509		60.28291	
	351	1	1	18.12088		36.75010		60.29316	
	352	1	1	17.02842		36.62901		60.52012	
	353	1	1	16.48308		35.83901		61.10163	
	354	1	1	15.40524		35.54709		61.21427	
	355	1	1	15.58026		34.47853		61.50953	
	356	1	1	16.36204		34.54182		62.31232	
	357	1	1	16.49362		34.07334		63.32369	
	358	1	1	17.42370		34.57306		62.94306	
	359	1	1	16.65926		35.31885		63.28815	
	360	1	1	17.19988		36.26652		63.02491	
	361	1	1	16.68683		36.60366		62.08535	
	362	1	1	17.75040		36.26484		61.96845	
	363	1	1	18.43130		37.15675		61.94554	
	364	1	1	18.84128		36.27761		62.51005	
	365	1	1	19.19842		37.12498		63.15352	
	366	1	1	18.39601		37.90929		63.12826	
	367	1	1	19.40825		38.23896		62.77280	
	368	1	1	19.50175		39.06587		62.01973	
	369	1	1	20.56065		38.92565		62.36429	
	370	1	1	21.46522		39.27619		62.92868	
	371	1	1	21.16444		40.19388		62.35682	
	372	1	1	21.55859		40.80732		63.21005	
	373	1	1	22.38105		40.98045		63.95384	
	374	1	1	21.73855		40.95589		64.87375	
	375	1	1	21.26452		39.97377		65.13902	
	376	1	1	21.24344		38.90455		65.47957	
	377	1	1	22.28157		39.07129		65.87214	
	378	1	1	22.67385		39.97242		66.41410	
	379	1	1	22.77637		40.98206		65.93475	
	380	1	1	23.61287		40.32394		65.57866	
	381	1	1	24.21404		39.98163		66.46244	
	382	1	1	24.85586		39.36926		67.14998	
	383	1	1	25.41703		39.47319		68.11638	
	384	1	1	24.53584		39.10982		68.70892	
	385	1	1	24.80589		39.01227		69.79391	
	386	1	1	24.60831		38.04159		69.26628	
	387	1	1	25.31618		37.17065		69.27278	
	388	1	1	25.74627		37.21395		70.30854	
	389	1	1	26.09274		38.22738		69.97303	
	390	1	1	27.09148		37.79453		69.69949	
	391	1	1	27.88638		37.54735		68.94672	
	392	1	1	28.25120		37.40178		69.99808	
	393	1	1	28.47740		37.66048		71.06652	
	394	1	1	29.14195		38.55347		71.20996	
	395	1	1	29.21282		39.67279		71.25193	
	396	1	1	28.85430		40.08850		72.23085	
	397	1	1	29.06533		41.11697		71.83414	
	398	1	1	29.96539		40.77858		72.41296	
	399	1	1	30.80246		40.16456		71.98640	
	400	1	1	31.88157		39.86515		72.06059	
	401	1	2	31.28022		38.96140		72.34565	
	402	1	2	32.26792		39.01275		72.87618	
	403	1	2	32.12299		38.11313		73.53141	
	404	1	2	31.16634		37.69860		73.94691	
	405	1	2	31.84999		37.70899		74.83695	
	406	1	2	32.39890		36.78322		75.15520	
	407	1	2	31.68684		35.93847		74.95769	
	408	1	2	31.76893		36.28629		73.89376	
	409	1	2	31.89037		35.35418		73.28051	
	410	1	2	31.20234		35.08120		74.12416	
	411	1	2	30.14219		35.08154		74.49256	
	412	1	2	29.17693		35.03410		73.92188	
	413	1	2	28.57116		35.97397		74.01854	
	414	1	2	29.16870		36.01595		74.96766	
	415	1	2	28.52079		36.17347		75.87046	
	416	1	2	29.04248		35.85845		76.81293	
	417	1	2	30.04577		36.33609		76.65507	
	418	1	2	29.98959		35.36573		76.09391	
	419	1	2	29.65092		34.29626		76.12803	
	420	1	2	30.00131		33.24232		76.28957	
	421	1	2	30.99387		32.72663		76.19720	
	422	1	2	30.27162		32.43495		75.38916	
	423	1	2	29.69302		31.54876		75.01562	
	424	1	2	29.27962		31.29405		74.00375	
	425	1	2	28.62425		30.40935		73.78599	
	426	1	2	28.38357		30.52263		74.87635	
	427	1	2	28.56754		29.78644		75.70328	
	428	1	2	29.07967		30.76142		75.91952	
	429	1	2	29.87281		30.02763		76.22304	
	430	1	2	29.92046		29.71335		75.14666	
	431	1	2	29.21977		29.30274		74.37201	
	432	1	2	28.66171		29.07609		73.42499	
	433	1	2	28.89413		28.32764		72.62159	
	434	1	2	28.89749		27.35147		72.06777	
	435	1	2	30.01691		27.41471		72.11818	
	436	1	2	31.06808		27.39097		71.72559	
	437	1	2	31.01277		26.79063		72.67226	
	438	1	2	31.54852		26.82083		73.65801	
	439	1	2	31.84885		26.58043		74.71237	
	440	1	2	32.04873		26.55213		75.81640	
	441	1	2	32.10488		25.44770		75.62474	
	442	1	2	33.12175		24.97345		75.59795	
	443	1	2	32.90906		25.19603		76.67724	
	444	1	2	33.55391		24.69874		77.44958	
	445	1	2	34.07625		24.64711		76.45754	
	446	1	2	34.32858		23.74200		77.07134	
	447	1	2	34.07752		22.73077		77.48850	
	448	1	2	33.02492		22.37764		77.32420	
	449	1	2	32.78732		23.01817		76.43374	
	450	1	2	32.99568		23.15176		75.33903	
	451	1	2	32.28229		23.04866		74.47874	
	452	1	2	31.59001		23.60069		73.78907	
	453	1	2	32.38218		24.30957		74.14907	
	454	1	2	32.05028		24.54182		73.10238	
	455	1	2	31.46380		25.09312		72.32024	
	456	1	2	32.34153		25.50138		71.75230	
	457	1	2	32.35139		25.06283		70.71923	
	458	1	2	32.02546		25.73313		69.88010	
	459	1	2	31.63336		26.67748		70.34282	
	460	1	2	32.27672		27.08994		71.16477	
	461	1	2	32.50263		28.13663		70.82855	
	462	1	2	31.49948		28.63982		70.81660	
	463	1	2	31.37620		28.87347		71.90740	
	464	1	2	31.70451		28.95656		72.97743	
	465	1	2	31.72108		29.97239		72.50048	
	466	1	2	31.41387		29.95019		71.42124	
	467	1	2	31.56652		30.20758		70.33953	
	468	1	2	32.48121		30.40649		70.95875	
	469	1	2	33.14002		31.31191		71.03513	
	470	1	2	33.17343		32.25338		70.42507	
	471	1	2	33.04300		32.43696		71.52458	
	472	1	2	32.10247		32.78462		71.02043	
	473	1	2	31.05708		33.18948		71.07435	
	474	1	2	31.08169		34.31031		71.02152	
	475	1	2	30.53912		34.85979		70.20707	
	476	1	2	31.41754		35.55646		70.15534	
	477	1	2	32.36743		35.14201		70.58615	
	478	1	2	32.88316		36.01863		71.06071	
	479	1	2	32.80609		36.34772		72.13094	
	480	1	2	31.72045		36.34819		71.84629	
	481	1	2	30.61350		36.50852		71.93907	
	482	1	2	30.67590		37.35835		72.66952	
	483	1	2	29.77743		36.71682		72.87158	
	484	1	2	29.14293		37.02955		73.74294	
	485	1	2	30.02810		36.45658		74.12744	
	486	1	2	30.41479		36.28717		75.16735	
	487	1	2	29.67250		37.04511		75.53368	
	488	1	2	28.92895		37.55565		74.86576	
	489	1	2	28.42205		38.14641		74.05724	
	490	1	2	28.18682		38.66885		73.09217	
	491	1	2	27.53915		39.57391		72.94711	
	492	1	2	26.77656		39.85187		72.17197	
	493	1	2	27.16968		40.64318		71.47992	
	494	1	2	26.52862		40.70345		70.56065	
	495	1	2	25.45380		40.39203		70.64681	
	496	1	2	25.53496		41.41305		70.18792	
	497	1	2	25.62611		40.96149		69.16448	
	498	1	2	26.15417		40.89774		68.17618	
	499	1	2	25.06031		40.82360		67.93612	
	500	1	2	23.99881		40.90910		67.58180	
	501	1	2	23.34985		40.63813		68.45649	
	502	1	2	23.00635		40.06287		67.55608	
	503	1	2	21.91475		40.26174		67.38723	
	504	1	2	21.13562		39.45763		67.46483	
	505	1	2	21.79112		38.58554		67.20135	
	506	1	2	21.92170		38.93136		68.26107	
	507	1	2	21.31848		37.99295		68.38423	
	508	1	2	22.40233		37.70156		68.38738	
	509	1	2	23.09512		37.79919		67.50979	
	510	1	2	22.79649		36.72829		67.35599	
	511	1	2	23.37838		36.33055		66.48258	
	512	1	2	23.62415		35.25293		66.67750	
	513	1	2	24.32747		36.02115		67.09562	
	514	1	2	24.21821		36.49095		68.10902	
	515	1	2	23.28612		35.91778		68.35871	
	516	1	2	23.54740		36.10972		69.43321	
	517	1	2	24.66338		36.21954		69.38649	
	518	1	2	25.52703		35.57471		69.07353	
	519	1	2	24.78533		35.12588		68.36072	
	520	1	2	25.02105		34.55533		69.29803	
	521	1	2	24.44844		34.47046		70.25958	
	522	1	2	23.40263		34.41070		69.85664	
	523	1	2	23.41019		34.50230		68.73807	
	524	1	2	23.75921		34.84297		67.72724	
	525	1	2	22.71680		35.24178		67.60905	
	526	1	2	22.08081		34.45999		68.10299	
	527	1	2	22.72817		33.75413		67.51790	
	528	1	2	21.77506		33.36988		67.96910	
	529	1	2	22.41454		32.48509		68.22962	
	530	1	2	21.53383		32.31917		67.55400	
	531	1	2	20.42231		32.38394		67.41269	
	532	1	2	20.10653		33.24989		68.05305	
	533	1	2	19.54186		32.31634		68.31626	
	534	1	2	19.12126		31.73537		67.45300	
	535	1	2	18.19852		32.31807		67.71499	
	536	1	2	18.22708		33.33643		68.18592	
	537	1	2	17.69928		33.54889		67.21849	
	538	1	2	17.19410		34.43164		66.74394	
	539	1	2	17.30498		33.54107		66.06997	
	540	1	2	18.04461		32.69713		66.05126	
	541	1	2	18.82753		31.94798		65.75893	
	542	1	2	17.95500		32.11401		65.07280	
	543	1	2	18.86136		32.06257		64.41287	
	544	1	2	19.40776		32.79036		65.06969	
	545	1	2	19.47668		33.09077		63.99050	
	546	1	2	20.52609		32.95486		64.36454	
	547	1	2	20.41639		32.77000		63.26298	
	548	1	2	20.93236		31.83673		62.91308	
	549	1	2	21.61202		32.37826		62.20283	
	550	1	2	20.68297		33.00787		62.19266	
	551	1	2	20.70370		33.72878		61.33272	
	552	1	2	20.66664		32.65380		61.01227	
	553	1	2	21.76517		32.57719		60.79543	
	554	1	2	21.89859		31.52803		61.17109	
	555	1	2	22.75175		31.78710		60.48945	
	556	1	2	22.81813		31.85250		59.37099	
	557	1	2	23.22480		31.27737		58.49721	
	558	1	2	23.16392		30.28636		57.97391	
	559	1	2	22.32219		30.55337		58.66663	
	560	1	2	21.50043		30.15772		58.01255	
	561	1	2	21.06727		29.14992		57.77516	
	562	1	2	19.94883		29.08543		57.84287	
	563	1	2	19.30026		29.98239		57.65722	
	564	1	2	18.96093		30.56076		58.55722	
	565	1	2	18.56747		31.41374		59.17143	
	566	1	2	17.94917		32.12830		59.77704	
	567	1	2	17.69067		31.15718		60.27678	
	568	1	2	16.81665		30.96176		59.60036	
	569	1	2	15.78181		31.33654		59.82014	
	570	1	2	16.30980		31.62636		60.76718	
	571	1	2	15.74771		30.93037		61.44490	
	572	1	2	14.70946		30.53015		61.59158	
	573	1	2	14.70138		31.18135		62.50565	
	574	1	2	13.92907		31.28352		63.31358	
	575	1	2	12.88287		30.91025		63.47415	
	576	1	2	12.94596		31.87180		64.04956	
	577	1	2	13.97103		32.32748		64.01456	
	578	1	2	13.23264		32.86896		64.66358	
	579	1	2	12.65486		32.37034		65.48649	
	580	1	2	13.69972		32.67065		65.76531	
	581	1	2	14.30205		32.10353		66.52374	
	582	1	2	14.39996		30.98749		66.59085	
	583	1	2	15.05900		31.46644		67.36280	
	584	1	2	15.44051		31.82451		68.35572	
	585	1	2	14.68749		32.07208		69.15027	
	586	1	2	13.80980		31.62227		69.68597	
	587	1	2	14.02126		32.69423		69.94256	
	588	1	2	13.07273		33.07192		70.40870	
	589	1	2	13.51096		32.17748		70.92598	
	590	1	2	12.87578		31.26889		70.75085	
	591	1	2	13.09374		30.30508		70.21867	
	592	1	2	13.09334		30.32812		69.09657	
	593	1	2	12.62995		29.75475		68.25030	
	594	1	2	13.32021		30.47853		67.74105	
	595	1	2	13.54454		30.10493		66.70677	
	596	1	2	12.43285		30.21136		66.81834	
	597	1	2	11.50801		30.52853		67.36947	
	598	1	2	11.88140		31.46638		66.87890	
	599	1	2	10.82247		31.49055		67.25001	
	600	1	2	11.37566		32.46496		67.18562	
	601	1	2	12.48557		32.50183		67.34802	
	602	1	2	13.28360		33.06014		67.90578	
	603	1	2	14.18087		33.73284		67.86080	
	604	1	2	15.22543		33.53636		67.50035	
	605	1	2	15.16021		34.17267		68.42257	
	606	1	2	14.48740		34.75367		69.10771	
	607	1	2	14.88536		35.19110		70.06161	
	608	1	2	13.87992		35.54310		69.70827	
	609	1	2	14.58976		36.41223		69.68848	
	610	1	2	15.19496		35.98568		68.84502	
	611	1	2	15.88771		35.61209		68.04491	
	612	1	2	16.13547		35.84291		66.97487	
	613	1	2	16.89179		35.91461		66.14874	
	614	1	2	16.14817		35.10090		65.93769	
	615	1	2	15.02650		35.06422		65.92501	
	616	1	2	15.04152		36.16767		66.12950	
	617	1	2	15.74728		35.96998		65.27951	
	618	1	2	15.16917		35.46580		64.46022	
	619	1	2	14.05443		35.33608		64.44667	
	620	1	2	13.68293		35.83374		63.51181	
	621	1	2	14.47244		35.95161		62.72287	
	622	1	2	14.32467		37.06358		62.75926	
	623	1	2	15.24240		37.14327		63.40040	
	624	1	2	16.31611		37.28609		63.69435	
	625	1	2	16.83055		38.11664		63.14192	
	626	1	2	16.71535		39.10503		62.62284	
	627	1	2	17.00989		40.17384		62.44804	
	628	1	2	16.93925		41.15735		62.98410	
	629	1	2	16.62734		40.52941		63.86049	
	630	1	2	16.77272		40.46727		64.97164	
	631	1	2	17.55715		41.05734		65.51583	
	632	1	2	17.92370		40.66040		66.49956	
	633	1	2	17.13330		39.87552		66.63689	
	634	1	2	16.52979		40.59569		67.25071	
	635	1	2	16.35572		41.60479		66.79130	
	636	1	2	15.36863		41.79875		67.28897	
	637	1	2	15.02601		41.40305		66.29616	
	638	1	2	14.08217		41.77307		65.81461	
	639	1	2	13.65508		42.62505		65.22183	
	640	1	2	13.20254		42.69473		64.19714	
	641	1	2	13.10959		43.79349		64.40629	
	642	1	2	14.01149		44.30875		64.83142	
	643	1	2	14.83948		44.71412		64.19130	
	644	1	2	15.65248		45.30948		63.69710	
	645	1	2	15.24525		45.66796		64.67960	
	646	1	2	14.47943		46.21589		65.29028	
	647	1	2	13.66851		46.91026		65.63657	
	648	1	2	13.21747		46.48737		64.69989	
	649	1	2	12.67576		45.52086		64.52089	
	650	1	2	12.95987		44.82411		65.35365	
	651	1	2	13.73709		45.01461		66.14060	
	652	1	2	14.62007		44.37830		65.86657	
	653	1	2	15.32506		45.12003		66.32751	
	654	1	2	16.26326		45.71721		66.47857	
	655	1	2	16.92346		45.71109		65.57097	
	656	1	2	17.04447		44.87518		66.31005	
	657	1	2	16.79016		44.42891		65.31215	
	658	1	2	15.97838		44.00298		65.95963	
	659	1	2	16.33724		43.38409		65.09486	
	660	1	2	16.54027		42.43788		65.66330	
	661	1	2	15.62483		42.50604		66.30904	
	662	1	2	14.91714		43.29112		66.68647	
	663	1	2	14.83600		43.38820		67.80166	
	664	1	2	14.07608		42.57115		67.68082	
	665	1	2	13.56995		42.60309		68.68205	
	666	1	2	12.71252		41.89675		68.84189	
	667	1	2	12.41994		41.67093		69.90163	
	668	1	2	13.09501		40.94526		70.42825	
	669	1	2	13.93945		40.96834		71.16719	
	670	1	2	14.69553		41.18921		70.36769	
	671	1	2	15.56935		40.57469		70.71188	
	672	1	2	16.35685		40.59258		71.51136	
	673	1	2	16.88623		39.60566		71.43794	
	674	1	2	17.63139		38.90776		70.97177	
	675	1	2	18.23631		38.18310		70.36464	
	676	1	2	17.76099		38.36046		69.36351	
	677	1	2	17.03712		38.45855		68.51143	
	678	1	2	16.60148		38.59437		69.53681	
	679	1	2	15.98106		39.06384		70.34572	
	680	1	2	15.17885		39.32079		69.60406	
	681	1	2	14.52453		39.18129		68.70292	
	682	1	2	13.51521		39.56983		68.40298	
	683	1	2	13.28011		38.65206		67.80126	
	684	1	2	12.95952		37.76611		68.41115	
	685	1	2	13.72938		37.28785		67.74915	
	686	1	2	12.75014		37.61400		67.30828	
	687	1	2	13.08393		36.64672		66.84720	
	688	1	2	13.44740		36.47529		65.79927	
	689	1	2	14.16044		36.93724		65.06591	
	690	1	2	14.11328		37.61519		65.95910	
	691	1	2	14.88405		37.74118		66.76513	
	692	1	2	14.64050		38.80061		67.04428	
	693	1	2	14.72250		38.82029		65.92512	
	694	1	2	15.58917		39.13295		65.28421	
	695	1	2	15.05377		40.05164		64.92502	
	696	1	2	15.46630		40.14222		65.96486	
	697	1	2	14.45675		40.04112		66.44468	
	698	1	2	14.81188		40.73197		67.25477	
	699	1	2	14.23858		40.91417		68.20228	
	700	1	2	13.38721		40.83552		67.47521	
	701	1	2	12.72851		40.36473		68.25246	
	702	1	2	12.32777		41.33202		67.84823	
	703	1	2	12.64367		42.39154		67.65513	
	704	1	2	12.09175		42.99073		68.42714	
	705	1	2	11.91089		44.06734		68.68762	
	706	1	2	11.11541		44.79421		69.00149	
	707	1	2	10.95803		43.69466		69.16237	
	708	1	2	10.94423		42.88256		69.93694	
	709	1	2	10.49012		42.40209		70.84390	
	710	1	2	10.23486		42.09517		71.89284	
	711	1	2	10.70589		42.56386		72.79733	
	712	1	2	11.05617		43.17799		71.92567	
	713	1	2	11.95637		43.08846		71.26139	
	714	1	2	13.07540		43.02154		71.31557	
	715	1	2	13.29927		42.01619		70.86970	
	716	1	2	12.69606		42.74851		70.27012	
	717	1	2	13.03808		43.72028		69.82477	
	718	1	2	12.60064		44.56981		70.41349	
	719	1	2	12.85112		45.46708		71.03943	
	720	1	2	12.05945		45.49589		71.83446	
	721	1	2	11.29329		45.55437		71.01640	
	722	1	2	11.89268		46.39542		70.57707	
	723	1	2	12.44327		46.76040		69.66972	
	724	1	2	11.41846		46.32179		69.53922	
	725	1	2	10.62192		45.80212		70.13514	
	726	1	2	10.60732		46.86270		70.50203	
	727	1	2	9.68894		47.47193		70.71432	