#-----------------------------------------------------------------------------------           
# NANOPOLY - POLYMER NANOCOMPOSITE STRUCTURAL DATA FILE                                        
#-----------------------------------------------------------------------------------           
# FILENAME:  test_structure.in                                                                  
# DATE: 2020-12-22                                                                                
#-----------------------------------------------------------------------------------           
                                                                                               
51000 atoms                                                             
51995 bonds                                                             
                                                                                               
4 atom types                                            
1 bond types                                            
                                                                                    
0.0000 20.3010 xlo xhi            
0.0000 20.3010 ylo yhi            
0.0000 20.3010 zlo zhi            
                                                                                    
Masses                                                                              
                                                                                    
1	1.0
2	1.0
3	1.0
4	3.0


Atoms                                                                               

	1	1	1	9.57841		6.11500		17.00841	
	2	1	2	8.93639		6.00704		17.18053	
	3	1	3	9.03710		6.64248		17.37940	
	4	1	1	9.08846		7.27527		17.60392	
	5	1	2	9.71465		7.11039		17.41906	
	6	1	3	9.32088		6.92518		16.90513	
	7	1	1	8.99231		7.35385		16.50294	
	8	1	2	8.34519		7.34520		16.31682	
	9	1	3	8.77011		7.73310		15.96690	
	10	1	1	9.04629		8.00546		15.41643	
	11	1	2	9.20270		7.92191		16.06606	
	12	1	3	9.36417		7.38812		16.44351	
	13	1	1	9.42438		6.71880		16.40044	
	14	1	2	9.80674		6.48913		16.90494	
	15	1	3	10.32274		6.90846		17.01160	
	16	1	1	9.88051		6.76066		17.49746	
	17	1	2	10.08179		7.03436		18.07887	
	18	1	3	9.83277		6.50166		18.40702	
	19	1	1	9.74719		6.83066		17.82573	
	20	1	2	9.33480		6.35239		18.05954	
	21	1	3	9.50692		6.65794		18.63442	
	22	1	1	9.05188		7.13726		18.76351	
	23	1	2	8.76271		6.94953		19.34197	
	24	1	3	8.37921		7.18823		18.84255	
	25	1	1	8.71825		7.75671		18.96646	
	26	1	2	9.11520		7.79942		18.42417	
	27	1	3	9.48134		7.33223		18.10614	
	28	1	1	9.90145		7.65504		18.52180	
	29	1	2	10.41665		7.40156		18.87364	
	30	1	3	10.07143		7.91585		18.60943	
	31	1	1	10.38322		7.98089		19.20275	
	32	1	2	10.66224		8.55311		18.98326	
	33	1	3	10.72135		7.92265		18.75414	
	34	1	1	11.14441		8.23724		18.33518	
	35	1	2	11.50072		8.46812		17.81248	
	36	1	3	11.86211		8.06176		18.20965	
	37	1	1	12.47581		7.85686		18.39635	
	38	1	2	12.28489		7.27066		18.12545	
	39	1	3	12.27056		7.12759		18.78332	
	40	1	1	12.86957		7.40511		18.91611	
	41	1	2	12.76887		6.74120		18.86558	
	42	1	3	13.21479		6.76492		18.36153	
	43	1	1	13.04315		6.24564		17.96863	
	44	1	2	12.62418		5.73307		18.09196	
	45	1	3	12.60627		6.10300		18.65437	
	46	1	1	12.78070		6.27375		19.28198	
	47	1	2	13.00027		6.47107		18.67673	
	48	1	3	13.54818		6.10150		18.54755	
	49	1	1	14.04784		5.67543		18.69681	
	50	1	2	14.59323		5.59229		19.08297	
	51	1	3	14.15671		5.09183		19.19460	
	52	1	1	14.06190		5.74691		19.31848	
	53	1	2	13.41389		5.82265		19.15169	
	54	1	3	13.93645		6.01237		18.77166	
	55	1	1	14.42439		6.04033		19.23491	
	56	1	2	14.90195		5.65661		19.51451	
	57	1	3	15.49176		5.35769		19.64194	
	58	1	1	15.06842		5.11898		19.17581	
	59	1	2	14.52901		5.02092		18.78480	
	60	1	3	14.46080		4.39345		19.01952	
	61	1	1	14.00496		4.43843		18.52590	
	62	1	2	14.03049		4.96288		18.94753	
	63	1	3	13.58260		4.64173		19.33448	
	64	1	1	13.23708		4.59629		19.91070	
	65	1	2	13.13621		4.11979		19.44567	
	66	1	3	12.98287		4.09831		18.79031	
	67	1	1	13.62168		4.20630		18.60667	
	68	1	2	13.33133		3.74476		18.21151	
	69	1	3	13.32533		4.31292		18.57294	
	70	1	1	12.94908		4.63876		19.02652	
	71	1	2	12.81629		4.36807		18.42438	
	72	1	3	12.37636		4.34507		18.93370	
	73	1	1	12.31897		3.67841		18.85789	
	74	1	2	12.86697		3.29136		18.79991	
	75	1	3	12.39824		2.86316		18.57538	
	76	1	1	12.25670		2.21476		18.46129	
	77	1	2	12.25896		1.58645		18.70356	
	78	1	3	11.97408		1.24762		19.21101	
	79	1	1	12.12177		1.22951		18.55425	
	80	1	2	12.39351		1.34550		19.15937	
	81	1	3	12.46453		0.95243		18.61722	
	82	1	1	12.23539		0.63387		19.16448	
	83	1	2	11.92313		0.67395		18.56920	
	84	1	3	11.71270		0.36889		18.00694	
	85	1	1	11.95628		0.19677		18.61069	
	86	1	2	11.44205		0.33273		19.02367	
	87	1	3	11.16399		0.94379		18.97106	
	88	1	1	11.55321		1.11514		18.44893	
	89	1	2	11.13076		0.69516		18.76298	
	90	1	3	10.93241		0.18822		19.15939	
	91	1	1	11.30937		0.28300		19.70929	
	92	1	2	11.32102		19.96045		19.96330	
	93	1	3	10.88758		19.56021		19.63863	
	94	1	1	11.40962		19.45013		20.04952	
	95	1	2	11.00842		18.94684		19.85148	
	96	1	3	11.14314		19.36293		0.06253	
	97	1	1	10.99709		19.61072		0.67141	
	98	1	2	10.69454		19.82121		0.10783	
	99	1	3	10.18409		19.63157		0.50400	
	100	1	1	10.61314		19.51421		20.29941	
	101	1	2	10.56862		18.84556		20.23317	
	102	1	3	10.57936		18.32520		19.80587	
	103	1	1	10.55941		18.59080		0.12336	
	104	1	2	11.21903		18.71686		0.17320	
	105	1	3	11.54445		18.35336		20.01004	
	106	1	1	11.02169		18.11223		19.66068	
	107	1	2	10.36779		18.00681		19.53912	
	108	1	3	10.23957		18.65485		19.66980	
	109	1	1	10.42263		18.91174		19.07484	
	110	1	2	10.46989		19.56679		18.92605	
	111	1	3	10.38436		20.09134		18.51252	
	112	1	1	10.20759		0.40859		18.71252	
	113	1	2	10.52743		20.17265		18.96327	
	114	1	3	10.16161		0.11838		19.47196	
	115	1	1	10.10882		0.04133		18.80507	
	116	1	2	9.69906		19.81162		18.86765	
	117	1	3	9.24330		19.31780		18.82406	
	118	1	1	9.58334		19.12287		19.37164	
	119	1	2	8.94112		18.96388		19.49714	
	120	1	3	8.89011		18.47000		19.04222	
	121	1	1	8.56781		18.73158		19.57247	
	122	1	2	8.96875		18.77970		19.03358	
	123	1	3	8.56021		19.13008		19.43831	
	124	1	1	9.00462		19.63254		19.37906	
	125	1	2	8.46038		20.02680		19.33618	
	126	1	3	8.10836		20.12056		19.90253	
	127	1	1	8.16841		0.32577		19.46251	
	128	1	2	7.56842		0.26049		19.76122	
	129	1	3	7.10933		0.45397		19.30815	
	130	1	1	6.45573		0.60904		19.35550	
	131	1	2	6.51362		20.25266		19.22139	
	132	1	3	6.01512		19.92848		18.90537	
	133	1	1	6.55623		0.02329		18.84210	
	134	1	2	6.37718		0.40652		18.31813	
	135	1	3	6.61909		0.74093		17.78604	
	136	1	1	7.15430		0.69196		18.19178	
	137	1	2	7.06467		0.02467		18.20454	
	138	1	3	6.54144		0.38765		17.98558	
	139	1	1	6.67416		0.55022		18.62544	
	140	1	2	6.20622		0.07279		18.70646	
	141	1	3	6.14497		0.71267		18.50578	
	142	1	1	6.78003		0.85958		18.33671	
	143	1	2	7.01981		1.40843		18.64452	
	144	1	3	6.63708		1.16124		19.14039	
	145	1	1	6.04563		1.38002		19.37661	
	146	1	2	5.86409		0.79251		19.65111	
	147	1	3	6.11544		0.83361		19.02773	
	148	1	1	6.03281		0.19839		19.23544	
	149	1	2	5.97905		19.82817		19.22899	
	150	1	3	5.96949		19.25789		18.87100	
	151	1	1	6.01712		19.22459		19.54189	
	152	1	2	5.46981		18.83584		19.59486	
	153	1	3	5.87071		19.18763		20.00596	
	154	1	1	5.24544		19.34440		19.81119	
	155	1	2	5.44793		18.82822		20.19332	
	156	1	3	5.47973		18.52196		19.59443	
	157	1	1	5.44623		17.85874		19.70619	
	158	1	2	4.93560		18.18314		19.41040	
	159	1	3	5.33094		17.70176		19.15455	
	160	1	1	5.50351		17.06443		19.02227	
	161	1	2	5.03409		16.58161		19.02432	
	162	1	3	4.90523		16.66843		18.36909	
	163	1	1	4.62558		16.05777		18.32045	
	164	1	2	4.25107		15.51245		18.19459	
	165	1	3	3.97859		15.73113		17.61891	
	166	1	1	4.42193		15.34998		17.28477	
	167	1	2	5.03518		15.15566		17.08569	
	168	1	3	5.28934		14.66377		16.70238	
	169	1	1	5.57288		14.08027		16.88291	
	170	1	2	5.62748		13.45578		16.63693	
	171	1	3	5.87129		12.86549		16.85043	
	172	1	1	6.43363		12.62716		17.13407	
	173	1	2	6.85824		12.11442		17.03270	
	174	1	3	6.33794		11.71729		16.87444	
	175	1	1	5.83758		12.10193		16.63958	
	176	1	2	6.28413		11.87620		16.18890	
	177	1	3	6.01220		12.40394		16.50673	
	178	1	1	6.25778		12.68719		15.94733	
	179	1	2	5.73968		13.11044		15.87050	
	180	1	3	5.83588		13.77685		15.88136	
	181	1	1	5.89520		13.32167		16.37408	
	182	1	2	5.92589		13.97889		16.23057	
	183	1	3	6.50585		13.65714		16.11398	
	184	1	1	6.37973		13.47347		15.47851	
	185	1	2	6.04054		13.83182		15.02023	
	186	1	3	6.23472		13.23752		15.27038	
	187	1	1	6.78482		12.88154		15.42574	
	188	1	2	6.98340		12.77675		16.06062	
	189	1	3	6.45549		12.72834		15.64535	
	190	1	1	6.76131		12.15466		15.82097	
	191	1	2	6.57261		11.74722		15.31912	
	192	1	3	6.68996		12.09265		14.75310	
	193	1	1	6.98360		12.55849		15.14071	
	194	1	2	6.45951		12.26029		15.44050	
	195	1	3	6.55652		12.54097		16.04489	
	196	1	1	6.53098		13.21349		16.06786	
	197	1	2	6.35337		13.08895		16.70537	
	198	1	3	5.82102		13.16616		17.11048	
	199	1	1	5.20511		13.41332		16.99627	
	200	1	2	4.70600		13.86519		16.98316	
	201	1	3	5.32910		13.94531		16.74069	
	202	1	1	5.00229		13.56126		16.29441	
	203	1	2	4.64054		13.28105		16.78846	
	204	1	3	5.22300		13.03045		16.56172	
	205	1	1	5.56068		12.83407		16.01319	
	206	1	2	5.02874		12.62228		16.36767	
	207	1	3	5.29499		12.01047		16.45860	
	208	1	1	5.32180		11.36301		16.64177	
	209	1	2	4.91234		10.95465		16.98681	
	210	1	3	4.45596		11.17794		16.54484	
	211	1	1	3.86149		10.87619		16.44988	
	212	1	2	3.43911		11.05352		15.95629	
	213	1	3	4.10229		11.00223		15.85120	
	214	1	1	3.67615		11.50877		15.97488	
	215	1	2	4.30835		11.31887		15.84173	
	216	1	3	4.84618		11.12370		15.48659	
	217	1	1	4.95131		11.41586		16.08414	
	218	1	2	4.91235		11.25919		16.73790	
	219	1	3	4.54918		10.69269		16.71213	
	220	1	1	4.53893		10.05164		16.91810	
	221	1	2	4.88806		10.32681		16.41226	
	222	1	3	5.21007		9.95468		16.87194	
	223	1	1	4.73957		9.50883		17.05449	
	224	1	2	4.77944		9.66018		17.70945	
	225	1	3	4.19484		9.97850		17.81136	
	226	1	1	3.68294		10.27222		17.48707	
	227	1	2	3.67101		10.58626		16.89150	
	228	1	3	3.62296		11.20109		16.62106	
	229	1	1	3.99857		11.70545		16.38018	
	230	1	2	3.87209		11.31475		16.91387	
	231	1	3	3.32918		10.96518		17.10500	
	232	1	1	2.82592		10.63750		16.80033	
	233	1	2	2.98355		11.26530		16.61460	
	234	1	3	2.59650		10.97883		17.08534	
	235	1	1	2.21500		10.60097		16.67895	
	236	1	2	2.78386		10.44614		16.35351	
	237	1	3	3.06681		9.92100		16.04104	
	238	1	1	2.76605		10.45220		15.75670	
	239	1	2	3.43812		10.44532		15.71499	
	240	1	3	3.74217		9.93619		15.39590	
	241	1	1	4.35469		9.80452		15.14902	
	242	1	2	3.81362		10.19852		15.22303	
	243	1	3	3.82725		10.70674		15.66462	
	244	1	1	4.25966		10.43734		15.22425	
	245	1	2	4.53208		10.94004		15.57999	
	246	1	3	4.22830		10.88306		14.98170	
	247	1	1	4.61674		10.34457		15.09406	
	248	1	2	5.23816		10.08545		15.08140	
	249	1	3	5.19641		9.96229		15.74213	
	250	1	1	5.45216		10.45910		15.36631	
	251	1	2	4.91845		10.11102		15.58418	
	252	1	3	4.91708		9.75909		16.15830	
	253	1	1	4.88846		10.39623		15.94218	
	254	1	2	5.19056		10.54918		16.52426	
	255	1	3	4.95589		10.11958		16.98670	
	256	1	1	4.53223		9.86208		16.53098	
	257	1	2	3.96890		9.55139		16.33197	
	258	1	3	4.55939		9.74865		16.07531	
	259	1	1	4.44455		9.24234		16.50418	
	260	1	2	4.67710		9.15989		17.13076	
	261	1	3	5.22975		9.54465		17.12751	
	262	1	1	5.69684		9.14005		17.39509	
	263	1	2	6.22393		8.75483		17.23000	
	264	1	3	5.69780		8.39416		17.01418	
	265	1	1	5.65370		8.35068		16.34363	
	266	1	2	5.43084		8.47158		15.71978	
	267	1	3	5.74314		9.01499		15.47352	
	268	1	1	5.30128		9.47415		15.69124	
	269	1	2	4.75252		9.13576		15.88574	
	270	1	3	5.13457		8.89650		16.38601	
	271	1	1	5.69375		8.70263		16.06476	
	272	1	2	6.11820		9.18311		16.27080	
	273	1	3	6.60348		8.77668		16.50056	
	274	1	1	6.99228		8.99038		17.00715	
	275	1	2	7.51165		9.32363		16.73757	
	276	1	3	7.94192		9.66027		17.13129	
	277	1	1	7.94587		10.31299		16.96573	
	278	1	2	7.60237		10.56448		16.44398	
	279	1	3	7.31199		11.14917		16.60920	
	280	1	1	7.33536		10.89873		17.23386	
	281	1	2	6.99349		11.47287		17.31725	
	282	1	3	7.65846		11.46529		17.42318	
	283	1	1	8.16297		11.21174		17.05622	
	284	1	2	8.15043		11.60501		17.60271	
	285	1	3	7.58028		11.28988		17.77328	
	286	1	1	7.16981		11.81966		17.83909	
	287	1	2	7.72965		12.04757		18.13594	
	288	1	3	7.31054		12.56120		18.25428	
	289	1	1	7.61144		12.01663		18.51190	
	290	1	2	7.14634		11.53374		18.57491	
	291	1	3	7.43273		11.16503		19.06021	
	292	1	1	7.87242		10.97525		18.58678	
	293	1	2	7.54852		10.48446		18.91494	
	294	1	3	7.33421		10.54778		18.27970	
	295	1	1	7.27007		11.10304		17.90414	
	296	1	2	7.32528		10.45291		17.73753	
	297	1	3	6.84124		10.59074		17.29011	
	298	1	1	7.40382		10.22182		17.26047	
	299	1	2	7.70142		9.67395		17.51490	
	300	1	3	8.23441		9.53618		17.90275	
	301	1	1	8.02557		9.20705		18.45187	
	302	1	2	8.25342		9.00815		19.05353	
	303	1	3	8.38822		9.38106		18.50925	
	304	1	1	8.61730		8.75207		18.58254	
	305	1	2	8.64682		9.04968		17.97919	
	306	1	3	9.08928		9.55621		18.01271	
	307	1	1	8.86467		9.52337		17.37872	
	308	1	2	8.88031		9.83386		16.78138	
	309	1	3	9.42146		9.70459		16.40201	
	310	1	1	9.83864		10.02688		15.98301	
	311	1	2	9.44142		10.47178		15.67037	
	312	1	3	9.23791		9.84414		15.80497	
	313	1	1	8.85569		9.73528		15.26134	
	314	1	2	8.54951		9.27929		15.65096	
	315	1	3	9.05898		9.04105		15.28061	
	316	1	1	9.66084		9.27815		15.09348	
	317	1	2	9.99799		9.19735		15.67077	
	318	1	3	10.42398		9.07308		15.16425	
	319	1	1	10.48371		9.10028		14.49405	
	320	1	2	10.70951		9.70776		14.31112	
	321	1	3	11.36977		9.80107		14.40507	
	322	1	1	10.92541		9.41102		14.08277	
	323	1	2	11.44273		9.82972		13.98011	
	324	1	3	10.99513		9.92453		13.48601	
	325	1	1	10.87486		10.12151		14.11862	
	326	1	2	10.93358		9.55582		13.75804	
	327	1	3	11.15002		8.97086		14.01191	
	328	1	1	10.61662		9.35281		14.16381	
	329	1	2	11.24603		9.49833		13.97372	
	330	1	3	10.64971		9.44753		13.66503	
	331	1	1	10.22572		9.37358		13.14711	
	332	1	2	10.07449		9.73654		13.69379	
	333	1	3	9.44783		9.96823		13.60959	
	334	1	1	9.17067		9.99239		14.22284	
	335	1	2	9.76619		10.22906		14.42976	
	336	1	3	10.32600		9.94508		14.18596	
	337	1	1	9.71172		10.14936		14.00050	
	338	1	2	9.81331		10.63020		13.54013	
	339	1	3	10.45673		10.44766		13.46165	
	340	1	1	9.87104		10.12676		13.37529	
	341	1	2	10.38029		10.05564		13.81011	
	342	1	3	10.93298		9.80402		14.10115	
	343	1	1	11.19497		9.99707		14.69070	
	344	1	2	11.29198		9.63322		15.24897	
	345	1	3	10.92435		9.10425		15.44522	
	346	1	1	11.16314		9.42821		14.90531	
	347	1	2	10.90273		9.01093		14.44538	
	348	1	3	11.33496		9.08153		14.95692	
	349	1	1	11.72051		9.40004		14.50595	
	350	1	2	11.66819		9.30524		15.17059	
	351	1	3	11.83393		9.94826		15.05867	
	352	1	1	12.29124		9.79724		14.58800	
	353	1	2	12.75307		9.37170		14.83112	
	354	1	3	12.30797		9.04977		14.44160	
	355	1	1	11.67915		8.81419		14.49225	
	356	1	2	11.62389		8.17973		14.27342	
	357	1	3	11.89338		8.47350		13.73070	
	358	1	1	11.41422		8.13530		14.06160	
	359	1	2	11.34351		8.72444		14.38003	
	360	1	3	10.75369		8.79601		14.06307	
	361	1	1	10.18651		8.99137		14.36903	
	362	1	2	10.42598		8.49754		13.97882	
	363	1	3	10.31926		8.91956		13.46503	
	364	1	1	10.11398		8.63903		12.88828	
	365	1	2	9.68064		8.17763		13.11805	
	366	1	3	9.29585		8.03830		12.58326	
	367	1	1	9.28041		7.96946		13.25296	
	368	1	2	9.42261		7.55506		12.74156	
	369	1	3	9.04996		7.70322		12.20059	
	370	1	1	9.42764		8.23125		12.02165	
	371	1	2	9.01542		8.69115		12.29007	
	372	1	3	9.05827		8.17915		11.85476	
	373	1	1	9.53992		7.92727		11.45722	
	374	1	2	9.21523		7.34811		11.34487	
	375	1	3	9.03955		7.83058		10.90916	
	376	1	1	8.85958		8.42396		11.17181	
	377	1	2	8.52279		8.04537		11.61534	
	378	1	3	8.31177		7.41177		11.52881	
	379	1	1	7.88812		7.88224		11.75827	
	380	1	2	8.17629		8.20536		11.24250	
	381	1	3	8.16361		8.21464		10.56928	
	382	1	1	8.81137		8.25703		10.74843	
	383	1	2	9.16321		8.14105		11.31077	
	384	1	3	9.53224		8.58330		10.96191	
	385	1	1	9.13343		8.10200		10.71136	
	386	1	2	9.67528		7.75403		10.51442	
	387	1	3	9.49961		7.60230		11.14656	
	388	1	1	10.07541		7.92205		11.28687	
	389	1	2	9.69930		8.30947		11.68927	
	390	1	3	10.35827		8.21192		11.78783	
	391	1	1	10.98991		8.04925		11.95530	
	392	1	2	11.43142		8.31512		11.52187	
	393	1	3	11.73790		8.53861		12.07828	
	394	1	1	12.00267		9.11822		11.86051	
	395	1	2	12.41270		9.64202		11.96525	
	396	1	3	12.35901		9.00929		12.18939	
	397	1	1	12.79932		8.57919		11.91623	
	398	1	2	13.38022		8.28374		12.08576	
	399	1	3	13.67800		7.70224		12.24903	
	400	1	1	13.61937		8.11740		12.77598	
	401	1	2	13.58968		8.61032		13.23383	
	402	1	3	13.46827		9.05560		13.72419	
	403	1	1	13.78907		9.59400		13.47784	
	404	1	2	13.53147		10.13658		13.17334	
	405	1	3	13.30481		9.56832		12.89197	
	406	1	1	13.28640		9.07955		12.42911	
	407	1	2	13.19619		9.09461		11.76195	
	408	1	3	13.26827		9.09775		11.09242	
	409	1	1	13.50693		9.64497		11.40397	
	410	1	2	12.90206		9.87016		11.59603	
	411	1	3	13.36721		10.13722		12.00320	
	412	1	1	13.15261		10.34134		12.60797	
	413	1	2	13.43593		10.94918		12.66910	
	414	1	3	13.80553		10.76794		13.20203	
	415	1	1	13.37423		10.42478		12.81512	
	416	1	2	13.40609		10.65087		13.44864	
	417	1	3	13.20871		10.94429		14.02171	
	418	1	1	12.70410		10.87133		13.58181	
	419	1	2	12.12427		11.16032		13.39808	
	420	1	3	12.34908		10.90010		13.97706	
	421	1	1	11.89904		10.67405		14.42409	
	422	1	2	11.78698		10.38402		15.02142	
	423	1	3	12.25692		10.69025		14.64879	
	424	1	1	12.35361		10.84023		15.29812	
	425	1	2	13.00488		10.78888		15.46146	
	426	1	3	12.54381		10.51495		15.05421	
	427	1	1	12.81374		10.04643		14.65284	
	428	1	2	13.00799		10.47031		14.16696	
	429	1	3	12.87113		10.10637		13.61715	
	430	1	1	13.10027		10.20457		12.99159	
	431	1	2	13.32999		9.76788		13.44985	
	432	1	3	12.79444		9.47765		13.16275	
	433	1	1	12.65585		8.81884		13.14747	
	434	1	2	12.88649		8.18822		13.19842	
	435	1	3	13.16435		7.68521		12.84734	
	436	1	1	12.53944		7.75058		12.60508	
	437	1	2	12.36815		8.40062		12.64486	
	438	1	3	12.53926		7.88700		13.04534	
	439	1	1	13.03213		7.92666		12.58820	
	440	1	2	13.01081		7.40953		13.01901	
	441	1	3	13.60860		7.56767		13.28568	
	442	1	1	13.33798		7.68621		13.89081	
	443	1	2	12.81088		7.85314		13.50640	
	444	1	3	12.97290		7.25009		13.75851	
	445	1	1	13.09750		6.67628		13.42883	
	446	1	2	13.41178		6.09166		13.31515	
	447	1	3	13.85881		6.06178		12.81241	
	448	1	1	14.12809		5.46517		12.65424	
	449	1	2	13.86001		5.67545		12.07339	
	450	1	3	13.75122		5.81145		11.42289	
	451	1	1	14.31215		6.18319		11.39774	
	452	1	2	14.46885		6.42397		12.00679	
	453	1	3	14.68157		6.05274		11.48678	
	454	1	1	14.32697		5.84929		12.02188	
	455	1	2	14.54454		6.40618		12.33173	
	456	1	3	13.88666		6.40608		12.18797	
	457	1	1	13.74256		5.82801		12.50187	
	458	1	2	13.63863		5.16329		12.53054	
	459	1	3	13.94979		4.65889		12.21081	
	460	1	1	13.78128		4.33179		11.64682	
	461	1	2	13.51185		3.71961		11.56859	
	462	1	3	14.10919		4.02895		11.53747	
	463	1	1	14.71714		4.14579		11.80247	
	464	1	2	14.64699		4.21909		11.13675	
	465	1	3	14.62836		4.82926		10.85247	
	466	1	1	14.25189		4.57300		11.34853	
	467	1	2	14.50722		5.19548		11.37680	
	468	1	3	14.94389		5.69975		11.28454	
	469	1	1	15.53468		5.39487		11.17736	
	470	1	2	15.98828		5.05097		10.81756	
	471	1	3	16.29729		5.55858		11.13429	
	472	1	1	16.70567		5.94082		11.50924	
	473	1	2	17.03684		6.52248		11.43532	
	474	1	3	17.20108		6.46637		10.78466	
	475	1	1	17.01683		5.96520		11.19497	
	476	1	2	17.00188		6.32169		11.76608	
	477	1	3	16.86076		6.46018		12.40980	
	478	1	1	16.19162		6.39618		12.36956	
	479	1	2	15.58083		6.12484		12.45192	
	480	1	3	16.05444		5.96218		12.90215	
	481	1	1	15.84403		6.27529		13.45998	
	482	1	2	16.03070		6.50155		12.85382	
	483	1	3	15.91579		6.67836		12.21428	
	484	1	1	16.42955		6.24303		12.21130	
	485	1	2	16.47420		6.36356		12.87233	
	486	1	3	16.64210		5.82369		13.23814	
	487	1	1	17.04386		5.37019		12.94419	
	488	1	2	16.37378		5.43621		12.93361	
	489	1	3	16.08606		4.92012		13.25663	
	490	1	1	16.35310		4.59402		12.73144	
	491	1	2	16.83158		4.33058		12.33758	
	492	1	3	16.28733		4.13641		11.99181	
	493	1	1	16.42635		4.28828		12.63296	
	494	1	2	16.04348		4.52253		12.13096	
	495	1	3	15.47362		4.72253		11.83308	
	496	1	1	15.78207		4.13326		11.72776	
	497	1	2	16.39051		3.97975		11.48340	
	498	1	3	16.12482		3.66611		12.01680	
	499	1	1	16.79235		3.57796		12.00660	
	500	1	2	16.66847		3.44880		12.65579	
	501	1	3	17.17732		3.79958		12.92317	
	502	1	1	16.61509		3.43072		12.95931	
	503	1	2	16.71426		4.09623		12.98655	
	504	1	3	16.38498		4.60369		13.28241	
	505	1	1	16.10156		4.04685		13.03127	
	506	1	2	15.77501		3.90743		12.45908	
	507	1	3	16.02935		3.72910		13.05656	
	508	1	1	16.02227		4.39744		13.13869	
	509	1	2	16.67197		4.42636		12.96395	
	510	1	3	17.16945		4.87707		13.01725	
	511	1	1	17.24478		5.44528		13.37071	
	512	1	2	17.24671		5.72719		12.75915	
	513	1	3	17.39704		6.14444		12.25242	
	514	1	1	17.15257		5.54582		12.06435	
	515	1	2	16.94527		6.14242		12.29796	
	516	1	3	17.45595		6.40973		11.94978	
	517	1	1	17.67200		6.73201		11.39939	
	518	1	2	17.58137		6.49167		10.77690	
	519	1	3	17.12520		6.95483		10.60121	
	520	1	1	16.88654		7.57369		10.71749	
	521	1	2	17.46096		7.54841		10.36695	
	522	1	3	17.96250		7.22966		10.05021	
	523	1	1	17.53438		7.74597		10.11030	
	524	1	2	17.49902		7.51734		9.47788	
	525	1	3	17.12329		7.40053		8.93138	
	526	1	1	17.76410		7.50105		8.75047	
	527	1	2	18.26413		7.44819		9.19841	
	528	1	3	18.10004		7.13054		9.76907	
	529	1	1	18.28068		6.48298		9.73019	
	530	1	2	17.68499		6.17406		9.78667	
	531	1	3	17.40524		6.37093		10.36671	
	532	1	1	16.95711		6.14050		9.92000	
	533	1	2	17.27245		5.70993		9.50933	
	534	1	3	17.31120		6.29605		9.18003	
	535	1	1	17.13448		6.82668		9.55510	
	536	1	2	17.77602		7.01907		9.48514	
	537	1	3	17.77231		7.16801		8.82842	
	538	1	1	17.45138		7.72921		9.01690	
	539	1	2	17.82229		8.27361		8.87713	
	540	1	3	17.56184		8.01558		8.31228	
	541	1	1	18.04139		7.57732		8.48961	
	542	1	2	18.70299		7.70268		8.49599	
	543	1	3	18.43035		7.64780		7.88269	
	544	1	1	18.23462		7.54546		7.24654	
	545	1	2	18.00174		7.27189		6.67698	
	546	1	3	17.71403		7.86892		6.79635	
	547	1	1	17.11457		7.57746		6.70060	
	548	1	2	17.07250		7.69920		7.36157	
	549	1	3	17.38227		7.39237		6.84837	
	550	1	1	16.81039		7.73744		6.76262	
	551	1	2	16.69425		7.86916		7.41273	
	552	1	3	16.88304		8.18479		6.84862	
	553	1	1	16.97181		8.63323		6.35416	
	554	1	2	17.12227		8.07530		6.69992	
	555	1	3	16.84740		8.33063		7.25914	
	556	1	1	17.35185		8.34440		6.81326	
	557	1	2	17.20767		8.68554		7.37567	
	558	1	3	17.68775		8.35597		7.71387	
	559	1	1	17.66539		9.01939		7.82718	
	560	1	2	18.19788		8.62674		7.70170	
	561	1	3	18.42883		8.90046		8.27197	
	562	1	1	17.89120		8.57328		8.51149	
	563	1	2	18.35241		8.34896		8.07510	
	564	1	3	18.85801		8.33739		7.63045	
	565	1	1	19.17580		8.56673		8.17807	
	566	1	2	19.21689		8.37559		7.53367	
	567	1	3	18.79636		8.86344		7.33711	
	568	1	1	18.70508		9.45618		7.64338	
	569	1	2	18.94037		8.82887		7.71116	
	570	1	3	19.29910		9.14473		7.23679	
	571	1	1	19.44928		8.61008		7.61767	
	572	1	2	19.95830		8.98893		7.84315	
	573	1	3	19.93154		9.11468		7.18213	
	574	1	1	20.20700		9.28688		7.77200	
	575	1	2	0.14222		9.50294		8.36444	
	576	1	3	19.85674		9.60096		8.04835	
	577	1	1	19.79467		9.45067		7.39488	
	578	1	2	19.52481		8.88327		7.15258	
	579	1	3	19.39850		9.07029		7.78704	
	580	1	1	19.37323		9.29562		8.42113	
	581	1	2	19.62071		8.67003		8.39185	
	582	1	3	20.26777		8.52352		8.27639	
	583	1	1	20.12907		7.91700		8.01876	
	584	1	2	0.24588		7.40554		7.88720	
	585	1	3	19.91742		7.43883		8.12414	
	586	1	1	20.18891		7.06936		8.61736	
	587	1	2	0.06216		7.71427		8.70220	
	588	1	3	0.45791		7.23242		8.95651	
	589	1	1	0.57800		7.79322		8.60358	
	590	1	2	0.21034		7.78352		9.16768	
	591	1	3	20.06725		7.28395		9.24946	
	592	1	1	19.72864		7.19423		9.82458	
	593	1	2	19.77019		6.92291		10.43950	
	594	1	3	20.17059		6.48655		10.76003	
	595	1	1	19.80397		6.46642		11.32453	
	596	1	2	20.00980		6.90141		11.79558	
	597	1	3	20.18718		6.25937		11.69664	
	598	1	1	0.10406		6.07657		11.08624	
	599	1	2	20.19437		6.71171		11.16161	
	600	1	3	20.04528		6.66574		10.50652	
	601	1	1	19.81692		6.07955		10.74676	
	602	1	2	19.82967		5.82806		10.12221	
	603	1	3	20.04144		5.81491		9.48311	
	604	1	1	19.89388		6.46968		9.53770	
	605	1	2	0.08634		6.31648		9.96955	
	606	1	3	0.37823		6.87105		9.72312	
	607	1	1	0.05949		6.28769		9.61558	
	608	1	2	0.49120		5.94337		9.23016	
	609	1	3	0.13596		5.82727		8.66998	
	610	1	1	20.10726		5.98945		9.23431	
	611	1	2	0.35481		5.97000		9.62441	
	612	1	3	0.73148		6.40022		9.98008	
	613	1	1	0.69363		5.73201		10.05449	
	614	1	2	1.15516		6.02990		10.44401	
	615	1	3	0.73536		6.10724		10.96483	
	616	1	1	0.83405		6.47876		10.41192	
	617	1	2	0.82529		7.14886		10.34582	
	618	1	3	0.44580		7.70459		10.32102	
	619	1	1	20.11506		7.91210		10.42742	
	620	1	2	19.87274		8.23736		9.88988	
	621	1	3	19.71970		8.07010		10.52398	
	622	1	1	19.05895		7.98461		10.62177	
	623	1	2	18.68889		7.83246		11.16341	
	624	1	3	18.22537		7.53271		11.54913	
	625	1	1	18.42484		7.74954		10.94360	
	626	1	2	18.27088		7.57449		10.31183	
	627	1	3	18.10953		7.85159		9.71967	
	628	1	1	18.19072		8.51922		9.75367	
	629	1	2	18.16659		7.94395		10.10289	
	630	1	3	18.67943		8.14130		9.71364	
	631	1	1	19.00987		8.11886		10.29997	
	632	1	2	19.50466		8.48231		10.02329	
	633	1	3	19.33987		8.96264		9.58102	
	634	1	1	18.88532		9.29124		9.95369	
	635	1	2	18.85280		8.98719		10.55367	
	636	1	3	18.54168		9.52481		10.29358	
	637	1	1	18.79620		10.14454		10.22546	
	638	1	2	18.71391		9.56231		9.89727	
	639	1	3	19.23100		9.79637		10.25963	
	640	1	1	19.14437		9.70136		10.92064	
	641	1	2	19.33946		10.31471		10.72260	
	642	1	3	19.91252		10.41687		11.06117	
	643	1	1	19.67934		10.55760		11.67703	
	644	1	2	19.78013		10.14486		12.19949	
	645	1	3	20.29770		9.91903		12.56637	
	646	1	1	19.99054		9.32414		12.49404	
	647	1	2	0.30883		9.06184		12.52789	
	648	1	3	20.05280		8.97052		12.89510	
	649	1	1	19.65863		8.83663		13.42443	
	650	1	2	19.80224		8.27185		13.76188	
	651	1	3	19.24553		7.91951		13.90116	
	652	1	1	19.10469		7.86212		14.55717	
	653	1	2	19.48190		7.47461		14.15589	
	654	1	3	19.71967		7.80483		14.69245	
	655	1	1	19.98367		8.05629		15.25862	
	656	1	2	19.65577		8.63041		15.13076	
	657	1	3	19.86593		9.25361		15.27543	
	658	1	1	19.88986		8.73387		15.70295	
	659	1	2	19.29611		9.00825		15.86308	
	660	1	3	18.71416		9.32185		15.99137	
	661	1	1	18.80597		9.94588		15.75549	
	662	1	2	18.45743		9.47626		15.42166	
	663	1	3	18.45467		8.80563		15.48274	
	664	1	1	17.94742		8.48959		15.17245	
	665	1	2	17.92685		9.01675		14.75393	
	666	1	3	18.50992		8.94511		14.42475	
	667	1	1	18.39109		9.34898		13.89916	
	668	1	2	18.89072		9.79776		13.84976	
	669	1	3	18.71937		10.34833		13.50193	
	670	1	1	18.53234		10.65452		12.93207	
	671	1	2	19.06344		10.69521		13.34407	
	672	1	3	19.27287		11.03249		13.88799	
	673	1	1	19.09331		10.65573		14.41646	
	674	1	2	19.28137		10.48882		15.04116	
	675	1	3	18.84198		9.97886		15.05990	
	676	1	1	18.69482		10.35966		14.52436	
	677	1	2	18.32595		9.91099		14.86509	
	678	1	3	18.63634		10.14133		15.41652	
	679	1	1	19.02170		9.65921		15.68584	
	680	1	2	19.14767		10.13562		15.22688	
	681	1	3	19.42917		9.69297		15.64913	
	682	1	1	19.43208		10.17594		16.11839	
	683	1	2	19.99287		9.82864		15.98287	
	684	1	3	0.09975		10.02787		16.48028	
	685	1	1	0.07655		9.38082		16.29519	
	686	1	2	20.10354		9.15415		16.86704	
	687	1	3	0.35515		8.78605		16.97931	
	688	1	1	0.82811		8.35048		16.77916	
	689	1	2	0.49049		8.06657		17.28798	
	690	1	3	0.49989		8.06923		16.61464	
	691	1	1	0.33701		7.76880		17.19489	
	692	1	2	20.24143		7.24185		17.33095	
	693	1	3	20.25582		6.81740		16.80836	
	694	1	1	20.21059		6.47132		16.23246	
	695	1	2	0.45825		6.55400		16.61406	
	696	1	3	0.98140		6.72241		16.22492	
	697	1	1	0.83535		7.29612		15.90400	
	698	1	2	0.59658		7.32649		16.53292	
	699	1	3	0.34110		7.24002		15.91588	
	700	1	1	0.46306		6.90692		16.48828	
	701	1	2	1.03589		6.76186		16.81123	
	702	1	3	0.42505		6.49820		16.91530	
	703	1	1	0.25738		6.17219		17.48017	
	704	1	2	0.62818		5.86908		17.95357	
	705	1	3	1.27880		5.99895		18.06889	
	706	1	1	0.82187		5.63891		17.72969	
	707	1	2	0.39549		5.12596		17.82221	
	708	1	3	20.05746		5.30968		17.71559	
	709	1	1	19.50854		5.60549		17.46133	
	710	1	2	19.03262		6.06952		17.56928	
	711	1	3	18.51740		6.39732		17.85312	
	712	1	1	18.83050		6.87178		18.21413	
	713	1	2	18.83116		7.54512		18.20499	
	714	1	3	18.34240		7.67770		18.64884	
	715	1	1	18.16908		8.31802		18.53297	
	716	1	2	17.90603		7.81509		18.89539	
	717	1	3	18.33295		7.39310		19.20056	
	718	1	1	17.70673		7.21209		19.36954	
	719	1	2	17.45408		7.74975		19.05243	
	720	1	3	17.48942		8.32983		19.39262	
	721	1	1	17.97856		7.86780		19.41976	
	722	1	2	18.44508		8.32921		19.57116	
	723	1	3	18.00466		7.87845		19.80847	
	724	1	1	18.51947		8.12428		20.16625	
	725	1	2	18.31925		7.89828		0.46717	
	726	1	3	18.71813		8.35275		0.76354	
	727	1	1	18.31263		8.40015		0.22800	
	728	1	2	17.86868		7.95609		20.28572	
	729	1	3	17.42909		8.43899		0.14913	
	730	1	1	17.01399		8.71655		19.99832	
	731	1	2	16.57907		8.74598		0.21059	
	732	1	3	17.00638		8.30760		0.49112	
	733	1	1	17.05129		8.73274		1.01142	
	734	1	2	16.97369		9.40127		1.03410	
	735	1	3	16.78494		9.41222		0.38778	
	736	1	1	17.31413		9.00922		0.49280	
	737	1	2	17.48296		8.35852		0.53228	
	738	1	3	17.45101		8.63684		20.22091	
	739	1	1	17.65579		8.02964		20.01390	
	740	1	2	17.44706		7.51036		19.63940	
	741	1	3	17.01680		7.84498		19.24395	
	742	1	1	17.08986		7.32685		19.66784	
	743	1	2	17.60797		6.93753		19.48491	
	744	1	3	17.95789		6.64682		18.98841	
	745	1	1	17.56382		6.95937		18.54064	
	746	1	2	17.38036		6.38645		18.23803	
	747	1	3	17.29658		6.10232		18.84278	
	748	1	1	17.01771		6.59628		18.47987	
	749	1	2	16.39041		6.61615		18.72394	
	750	1	3	16.75694		6.06231		18.83522	
	751	1	1	16.64147		5.99902		18.17481	
	752	1	2	17.16511		5.67978		17.89668	
	753	1	3	17.64208		6.10749		17.68924	
	754	1	1	17.15693		5.78674		17.34979	
	755	1	2	16.53598		5.72672		17.09624	