
# read data from object into file
read_data          ${structure}
read_data          test_structure.in
  orthogonal box = (0 0 0) to (100 100 100)
  1 by 1 by 1 MPI processor grid
  reading atoms ...
  40000 atoms
  scanning bonds ...
  1 = max bonds/atom
  reading bonds ...
  39950 bonds
  2 = max # of 1-2 neighbors
  2 = max # of 1-3 neighbors
  4 = max # of 1-4 neighbors
  6 = max # of special neighbors
  special bonds CPU = 0.0148489 secs
  read_data CPU = 0.0780311 secs

# define interactions
neighbor      1.0 multi
neigh_modify  every 10 one 1000
pair_style    lj/cut 1.5
pair_coeff    1 1 1.0 1.0
pair_style    lj/cut 1.5
pair_coeff    1 2 0.2 0.3
pair_style    lj/cut 1.5
pair_coeff    2 2 0.5 0.5

bond_style    fene
special_bonds fene
  2 = max # of 1-2 neighbors
  6 = max # of special neighbors
  special bonds CPU = 0.00508499 secs
bond_coeff    1 30 1.5 1.0 1.0
compute         1 all stress/atom NULL

#---------------------------------------------------------------------------------------------------
# EQUILIBRATION STAGE 1
# Description: {description}
#---------------------------------------------------------------------------------------------------
dump            1 all cfg 100 dump.test_settings.in_*.cfg mass type xs ys zs fx fy fz c_1[1] c_1[2] c_1[3]
velocity        all create 1.0 1231
ERROR: Atom IDs must be consecutive for velocity create loop all (src/velocity.cpp:270)
Last command: velocity        all create 1.0 1231
