#-----------------------------------------------------------------------------------           
# NANOPOLY - POLYMER NANOCOMPOSITE STRUCTURAL DATA FILE                                        
#-----------------------------------------------------------------------------------           
# FILENAME:  test_structure.in                                                                  
# DATE: 2021-06-10                                                                                
#-----------------------------------------------------------------------------------           
                                                                                               
40000 atoms                                                             
39950 bonds                                                             
                                                                                               
2 atom types                                      
1 bond types                                            
                                                                                    
0.0000 100.0000 xlo xhi            
0.0000 100.0000 ylo yhi            
0.0000 100.0000 zlo zhi            
                                                                                    
                                                                                    
# Types have been converted numerically as follows:                                 
# 1 a
# 2 b
                                                                                    
Masses                                                                              
                                                                                    
1	1.0
2	0.5

Atoms                                                                               

	1	1	1	32.97158		35.92634		83.31343	
	2	1	1	33.77182		35.83774		82.53151	
	3	1	1	34.42775		35.08843		82.01388	
	4	1	1	35.13343		35.82962		82.47464	
	5	1	1	35.46384		35.00131		83.15609	
	6	1	1	36.40478		35.27010		83.70567	
	7	1	1	36.86073		36.23198		84.06140	
	8	1	1	37.28924		36.64257		85.01400	
	9	1	1	37.96430		36.46047		84.13607	
	10	1	1	38.90308		35.94865		83.79491	
	11	1	1	39.30242		36.24016		82.78734	
	12	1	1	39.20044		35.13036		82.92004	
	13	1	1	38.52409		34.28676		82.61916	
	14	1	1	37.84417		35.04743		82.15146	
	15	1	1	37.31968		35.23702		81.17749	
	16	1	1	37.29989		34.78125		80.15206	
	17	1	1	36.35292		34.67836		80.74561	
	18	1	1	36.39909		34.04374		79.82107	
	19	1	1	36.50008		33.95117		78.70712	
	20	1	1	36.20594		32.89517		78.46630	
	21	1	1	36.67106		32.37893		79.34767	
	22	1	1	37.17502		31.64935		80.03570	
	23	1	1	37.99987		31.18852		79.42996	
	24	1	1	38.67612		32.07332		79.29045	
	25	1	1	38.46158		33.03987		79.81904	
	26	1	1	38.23287		33.97524		80.39559	
	27	1	1	38.20357		33.46461		81.39462	
	28	1	1	39.21406		33.67636		80.95450	
	29	1	1	40.14677		33.07921		80.77250	
	30	1	1	39.54544		32.38592		81.41855	
	31	1	1	39.17438		32.26625		82.47100	
	32	1	1	39.78414		32.31044		83.41222	
	33	1	1	40.09968		32.37431		84.48739	
	34	1	1	39.31308		33.17118		84.56426	
	35	1	1	39.64560		33.92724		83.80436	
	36	1	1	40.28313		34.81767		84.04996	
	37	1	1	41.10620		35.44884		83.62121	
	38	1	1	41.98396		35.97127		84.08626	
	39	1	1	42.29612		35.10385		83.44611	
	40	1	1	42.69184		35.12819		84.49609	
	41	1	1	43.58208		34.97883		83.82916	
	42	1	1	44.15752		35.94204		83.80196	
	43	1	1	43.66030		35.89147		84.80688	
	44	1	1	43.61940		36.62973		85.65124	
	45	1	1	44.54731		37.07502		85.20363	
	46	1	1	45.55462		36.96619		85.68647	
	47	1	1	45.85932		37.57896		86.57603	
	48	1	1	45.44086		37.48755		87.61342	
	49	1	1	45.73094		37.04215		88.60191	
	50	1	1	46.77166		37.05249		88.18188	
	51	1	1	47.80225		37.49695		88.18414	
	52	1	1	48.08033		36.70558		87.43844	
	53	1	1	48.75555		35.85271		87.16216	
	54	1	1	48.21081		35.07733		87.76358	
	55	1	1	49.29452		34.78941		87.81179	
	56	1	1	50.38577		34.99707		87.97215	
	57	1	1	50.94319		35.67529		87.27291	
	58	1	1	51.62538		36.55168		87.11101	
	59	1	1	51.64275		37.25208		86.23421	
	60	1	1	51.22869		37.52062		85.22619	
	61	1	1	51.58039		38.55092		84.95333	
	62	1	1	51.12028		39.50256		84.57607	
	63	1	1	50.17438		39.08665		85.01419	
	64	1	1	49.85080		38.01199		85.02175	
	65	1	1	50.30485		37.75580		86.01566	
	66	1	1	50.52689		37.37311		87.04711	
	67	1	1	49.95312		38.33415		87.12977	
	68	1	1	50.73756		39.02361		86.71873	
	69	1	1	51.65197		38.58728		86.23589	
	70	1	1	52.40401		39.20452		85.67634	
	71	1	1	53.03525		40.13192		85.64304	
	72	1	1	52.43693		40.26116		84.70231	
	73	1	1	53.20090		40.69104		84.00146	
	74	1	1	52.53603		41.58662		83.87680	
	75	1	1	51.75531		42.38824		83.79010	
	76	1	1	52.02692		43.47379		83.70383	
	77	1	1	51.50345		43.95245		82.83406	
	78	1	1	51.67283		44.98743		82.43434	
	79	1	1	50.70669		45.41053		82.05066	
	80	1	1	49.71673		45.57526		82.55314	
	81	1	1	49.39103		46.49993		82.00674	
	82	1	1	49.11934		46.52213		83.09547	
	83	1	1	49.80960		46.06426		83.85280	
	84	1	1	49.77995		45.66453		84.90113	
	85	1	1	49.17471		46.34389		85.55825	
	86	1	1	48.60192		45.84673		86.38553	
	87	1	1	47.72984		46.26484		85.81606	
	88	1	1	46.61580		46.18485		85.70580	
	89	1	1	45.87873		45.34445		85.60533	
	90	1	1	46.50725		44.91178		86.42837	
	91	1	1	46.07396		44.09409		85.79331	
	92	1	1	46.57703		43.54398		84.95429	
	93	1	1	47.23736		44.42283		84.72795	
	94	1	1	47.43008		43.84239		83.78689	
	95	1	1	47.71089		44.30415		82.80324	
	96	1	1	48.46764		43.60931		82.35137	
	97	1	1	49.33975		43.71887		83.04927	
	98	1	1	48.69524		44.57434		83.38457	
	99	1	1	48.30387		45.18588		84.24043	
	100	1	1	48.39219		44.44360		85.07760	
	101	1	1	49.31556		44.50132		84.44221	
	102	1	1	50.12118		44.68715		83.68321	
	103	1	1	50.10795		43.60141		83.96721	
	104	1	1	50.19219		43.88981		85.04859	
	105	1	1	51.23744		44.20286		85.31147	
	106	1	1	50.75903		44.27084		86.32447	
	107	1	1	50.09586		43.50352		86.80517	
	108	1	1	49.02994		43.15233		86.79460	
	109	1	1	49.69164		42.24754		86.85075	
	110	1	1	48.87975		42.31621		87.62261	
	111	1	1	49.69845		42.81907		88.20269	
	112	1	1	48.66613		42.84738		88.64219	
	113	1	1	49.05392		43.79918		89.09313	
	114	1	1	49.50145		44.33454		88.21406	
	115	1	1	49.70448		45.16097		88.94579	
	116	1	1	50.20099		44.28591		89.44319	
	117	1	1	51.24740		43.92545		89.25678	
	118	1	1	51.94363		43.24402		89.81406	
	119	1	1	52.88094		43.32459		90.42611	
	120	1	1	52.68213		43.03512		91.49210	
	121	1	1	53.09838		42.00135		91.62508	
	122	1	1	52.39565		41.30490		92.15496	
	123	1	1	51.92595		42.30779		92.33727	
	124	1	1	50.98434		41.94443		91.84637	
	125	1	1	50.49581		41.16455		92.48883	
	126	1	1	49.99441		42.00345		93.04064	
	127	1	1	49.26883		41.40671		92.42657	
	128	1	1	48.25543		41.78258		92.72889	
	129	1	1	47.23284		41.88623		92.27810	
	130	1	1	47.50458		42.33037		91.28385	
	131	1	1	46.44874		42.61202		91.02787	
	132	1	1	46.61377		41.88510		90.18882	
	133	1	1	47.44934		41.30043		90.65745	
	134	1	1	48.25399		41.94456		90.21330	
	135	1	1	48.49808		41.59714		91.25222	
	136	1	1	48.27385		40.51430		91.44414	
	137	1	1	48.28715		39.60967		90.77997	
	138	1	1	47.72961		38.86553		91.40850	
	139	1	1	46.75596		39.00831		90.86881	
	140	1	1	46.65828		37.98454		91.31826	
	141	1	1	46.52932		36.93110		90.95318	
	142	1	1	47.28395		36.11654		90.78989	
	143	1	1	47.50893		36.93231		91.52714	
	144	1	1	48.46081		36.93175		92.12176	
	145	1	1	48.50902		36.65765		91.03447	
	146	1	1	48.35996		36.82734		89.93509	
	147	1	1	48.29428		35.78096		89.53456	
	148	1	1	49.16343		35.53558		88.86821	
	149	1	1	49.92686		36.17489		89.38599	
	150	1	1	50.00679		35.12700		89.77991	
	151	1	1	49.92762		34.11272		90.25384	
	152	1	1	48.99115		33.51183		90.40079	
	153	1	1	48.97986		32.84237		91.30154	
	154	1	1	48.77699		32.91891		92.40274	
	155	1	1	48.19503		33.87767		92.44458	
	156	1	1	49.01965		34.43351		91.92430	
	157	1	1	49.39683		33.97750		92.87794	
	158	1	1	50.36533		33.55407		92.50064	
	159	1	1	51.10379		34.21415		93.02849	
	160	1	1	51.98472		33.53560		92.87627	
	161	1	1	52.12147		32.56357		93.42042	
	162	1	1	53.15586		32.59619		93.85473	
	163	1	1	52.97601		33.33862		94.67698	
	164	1	1	52.43138		34.29541		94.45886	
	165	1	1	52.02239		35.22384		93.97886	
	166	1	1	51.46827		35.47606		94.92171	
	167	1	1	51.17222		36.00606		95.86570	
	168	1	1	51.65712		35.33914		96.62711	
	169	1	1	50.54344		35.42770		96.73448	
	170	1	1	50.71336		35.71631		97.80568	
	171	1	1	51.25675		36.50600		98.38943	
	172	1	1	50.52754		36.66778		99.22712	
	173	1	1	50.06253		35.70067		98.89833	
	174	1	1	49.05050		36.13275		99.11911	
	175	1	1	48.20809		36.03015		98.38463	
	176	1	1	47.75351		36.65684		99.19718	
	177	1	1	46.79624		36.84460		98.64217	
	178	1	1	47.68945		37.10163		98.01308	
	179	1	1	48.58529		37.61619		97.57450	
	180	1	1	49.49815		36.98328		97.41407	
	181	1	1	49.34583		36.32202		96.52010	
	182	1	1	49.60930		35.33365		96.05820	
	183	1	1	48.50425		35.40254		96.24194	
	184	1	1	47.85788		34.95238		95.44243	
	185	1	1	48.89669		35.03168		95.02500	
	186	1	1	49.36837		34.09952		95.43517	
	187	1	1	50.01296		33.18871		95.55589	
	188	1	1	49.37922		32.47968		94.95981	
	189	1	1	50.25883		31.99142		95.45735	
	190	1	1	49.87657		31.33259		94.63305	
	191	1	1	49.17437		30.52481		94.97075	
	192	1	1	48.77193		31.43844		95.48355	
	193	1	1	49.25850		31.98487		96.33462	
	194	1	1	50.18915		31.53108		96.76774	
	195	1	1	49.72062		30.57082		97.11129	
	196	1	1	48.59886		30.59924		97.13335	
	197	1	1	48.23793		31.11292		98.06368	
	198	1	1	47.63258		31.62002		97.26615	
	199	1	1	47.22254		30.68625		97.73473	
	200	1	1	46.41342		30.42707		97.00138	
	201	1	1	46.48346		31.54096		96.88317	
	202	1	1	45.88655		31.86918		97.77515	
	203	1	1	45.65103		30.79111		97.97996	
	204	1	1	45.66007		29.70285		98.25431	
	205	1	1	44.97563		30.00534		99.09078	
	206	1	1	45.41018		31.03858		99.14754	
	207	1	1	44.86112		31.67858		98.40688	
	208	1	1	44.52281		32.67387		98.80006	
	209	1	1	44.54889		33.73031		99.17810	
	210	1	1	43.90877		34.40627		99.80497	
	211	1	1	43.20450		34.63301		0.64892	
	212	1	1	42.79344		35.44664		1.30366	
	213	1	1	43.35318		34.61164		1.80278	
	214	1	1	44.09273		34.01567		1.20484	
	215	1	1	44.77130		33.15188		0.97451	
	216	1	1	45.75291		33.68732		1.07139	
	217	1	1	45.13997		34.57772		0.76949	
	218	1	1	46.24201		34.70522		0.59948	
	219	1	1	46.66179		35.68860		0.25831	
	220	1	1	46.78015		35.18925		99.26017	
	221	1	1	47.60712		34.43419		99.33538	
	222	1	1	47.86053		33.43928		98.88197	
	223	1	1	47.45947		33.38739		99.92893	
	224	1	1	47.64272		32.28148		99.98400	
	225	1	1	47.18230		32.61031		0.95330	
	226	1	1	46.19955		32.39282		0.45676	
	227	1	1	46.13592		31.28962		0.65309	
	228	1	1	46.15574		30.31079		1.20187	
	229	1	1	45.60556		29.42974		0.77678	
	230	1	1	46.04366		28.40018		0.86465	
	231	1	1	46.27405		27.61998		0.09144	
	232	1	1	45.76063		27.26204		1.02307	
	233	1	1	46.77094		26.77463		0.98633	
	234	1	1	47.64125		26.23511		0.52683	
	235	1	1	47.03271		25.30182		0.66211	
	236	1	1	46.92406		24.94349		99.60408	
	237	1	1	46.78490		23.97432		0.15271	
	238	1	1	46.55087		22.88139		0.05084	
	239	1	1	47.13888		22.30787		0.81567	
	240	1	1	47.42115		23.39205		0.88291	
	241	1	1	47.68582		23.15367		99.81859	
	242	1	1	48.42854		22.31346		99.77312	
	243	1	1	48.51996		22.42989		0.88566	
	244	1	1	48.92526		22.86683		1.83669	
	245	1	1	49.71648		23.09914		1.07535	
	246	1	1	50.64994		23.68448		0.86162	
	247	1	1	50.57626		24.70856		0.40832	
	248	1	1	50.10161		24.53865		1.41107	
	249	1	1	49.99824		25.21723		2.29904	
	250	1	1	50.21635		24.68592		3.26329	
	251	1	1	50.84432		25.59744		3.07770	
	252	1	1	51.50679		25.06622		3.81159	
	253	1	1	51.85298		25.79229		4.59429	
	254	1	1	52.51237		26.31866		5.33442	
	255	1	1	53.12437		25.44667		5.68761	
	256	1	1	53.37458		24.58691		5.01097	
	257	1	1	53.22416		23.47745		4.93265	
	258	1	1	52.61746		23.00876		4.11296	
	259	1	1	52.16622		23.17160		3.09831	
	260	1	1	52.01507		24.14567		2.56167	
	261	1	1	51.14294		23.90483		1.89757	
	262	1	1	52.11095		23.61708		1.40787	
	263	1	1	52.02045		24.73546		1.38162	
	264	1	1	51.69611		24.60777		0.31478	
	265	1	1	51.83821		25.12468		99.32875	
	266	1	1	51.29474		26.10282		99.41540	
	267	1	1	50.42356		25.98715		0.11347	
	268	1	1	49.81349		25.61841		99.24658	
	269	1	1	49.17382		24.95211		99.88416	
	270	1	1	48.21669		24.38465		0.03090	
	271	1	1	48.64424		24.25078		1.05994	
	272	1	1	48.30175		24.11129		2.11961	
	273	1	1	48.84760		24.03561		3.09735	
	274	1	1	49.43320		23.83490		4.03352	
	275	1	1	48.58153		23.79320		4.76330	
	276	1	1	48.68462		22.67996		4.86184	
	277	1	1	48.96716		21.61021		4.67352	
	278	1	1	49.14156		21.49315		3.57101	
	279	1	1	50.23442		21.24322		3.51777	
	280	1	1	50.78018		20.59035		2.78595	
	281	1	1	50.10198		20.85837		1.93280	
	282	1	1	49.31642		20.09471		1.68914	
	283	1	1	49.24571		20.28981		0.58615	
	284	1	1	50.07957		19.78341		0.03127	
	285	1	1	50.69965		20.06172		0.92440	
	286	1	1	50.96172		19.61270		1.91907	
	287	1	1	51.62608		18.70819		1.90786	
	288	1	1	52.25267		18.35262		2.76844	
	289	1	1	52.69863		19.21575		3.33038	
	290	1	1	53.14231		20.24542		3.27957	
	291	1	1	52.46326		20.72167		2.52345	
	292	1	1	53.43179		20.93118		1.99648	
	293	1	1	53.90107		19.92142		1.85571	
	294	1	1	54.74989		19.97558		2.58798	
	295	1	1	55.23571		20.37765		1.65956	
	296	1	1	56.33878		20.53705		1.52738	
	297	1	1	56.03329		20.66562		2.59966	
	298	1	1	55.70524		20.72492		3.67135	
	299	1	1	55.71982		21.81725		3.92872	
	300	1	1	56.71541		22.05170		3.46669	
	301	1	1	56.09185		22.96707		3.64813	
	302	1	1	56.39950		23.69398		4.44600	
	303	1	1	55.93404		23.42465		5.43111	
	304	1	1	56.87521		22.96558		5.83497	
	305	1	1	57.00726		22.36318		4.89726	
	306	1	1	57.77806		23.17885		4.91116	
	307	1	1	57.48506		22.98805		3.84467	
	308	1	1	58.52422		22.72228		3.51427	
	309	1	1	59.45554		22.11533		3.66887	
	310	1	1	59.65880		22.54767		4.68446	
	311	1	1	60.38113		23.08776		5.35244	
	312	1	1	59.50842		23.79326		5.36957	
	313	1	1	59.24419		24.18107		4.35004	
	314	1	1	58.87065		24.92164		3.59395	
	315	1	1	59.67299		25.29407		4.28474	
	316	1	1	58.90815		25.57874		5.05521	
	317	1	1	59.76196		25.47353		5.77604	
	318	1	1	60.55348		25.40860		6.56909	
	319	1	1	60.58754		25.95566		7.54848	
	320	1	1	60.77932		27.04341		7.34935	
	321	1	1	61.68874		26.58815		6.87465	
	322	1	1	62.69334		26.26834		7.25952	
	323	1	1	62.88218		25.99597		6.18723	
	324	1	1	63.89661		26.15421		6.64059	
	325	1	1	64.73804		26.04984		7.37595	
	326	1	1	64.43812		25.01381		7.68632	
	327	1	1	63.45769		24.46760		7.67867	
	328	1	1	63.13343		25.49677		7.98738	
	329	1	1	62.03094		25.67182		8.10371	
	330	1	1	61.86177		25.14793		7.12567	
	331	1	1	61.83049		24.02615		7.14274	
	332	1	1	61.03129		23.54186		7.76433	
	333	1	1	61.42739		24.27835		8.51288	
	334	1	1	62.37026		24.41428		9.10631	
	335	1	1	62.26529		23.32740		8.84686	
	336	1	1	63.29341		23.16808		9.26785	
	337	1	1	63.94412		24.00492		8.89916	
	338	1	1	65.00954		24.09615		9.24007	
	339	1	1	65.45974		23.65629		8.31083	
	340	1	1	65.50213		22.55326		8.51375	
	341	1	1	65.96715		22.91121		9.47045	
	342	1	1	66.35631		22.30905		10.33394	
	343	1	1	67.27054		22.70132		9.81437	
	344	1	1	67.74092		23.68902		10.06503	
	345	1	1	66.72254		23.82930		10.51542	
	346	1	1	65.82392		23.38738		11.02220	
	347	1	1	65.40238		24.21982		10.39852	
	348	1	1	65.02667		25.16482		10.87335	
	349	1	1	64.85950		26.25396		10.66007	
	350	1	1	65.82515		26.80043		10.82905	
	351	1	1	65.51746		27.80318		10.42972	
	352	1	1	65.18465		28.85062		10.20222	
	353	1	1	64.16383		28.38428		10.19268	
	354	1	1	63.61789		28.41098		11.17293	
	355	1	1	62.80796		28.38521		11.94946	
	356	1	1	61.93197		27.91010		12.46576	
	357	1	1	61.28313		27.01302		12.28167	
	358	1	1	60.65312		26.76895		13.17787	
	359	1	1	60.75709		27.76754		13.67953	
	360	1	1	61.27029		28.76362		13.61564	
	361	1	1	61.94421		28.34550		14.40978	
	362	1	1	62.61241		28.84036		15.16362	
	363	1	1	63.47412		29.23241		14.56079	
	364	1	1	62.44688		29.50138		14.19736	
	365	1	1	61.82421		30.39289		14.47510	
	366	1	1	62.37911		31.19883		15.02482	
	367	1	1	62.48589		31.61193		13.98675	
	368	1	1	62.37796		32.53811		13.36210	
	369	1	1	61.61885		31.94120		12.79018	
	370	1	1	62.39033		31.12983		12.71187	
	371	1	1	61.78155		30.94205		11.78787	
	372	1	1	60.97698		30.16551		11.88423	
	373	1	1	59.90220		29.96211		12.13548	
	374	1	1	59.28746		30.18922		11.22434	
	375	1	1	59.58619		31.27026		11.26635	
	376	1	1	60.42693		31.94286		11.58324	
	377	1	1	61.47108		31.99374		11.17480	
	378	1	1	62.58378		31.98655		11.02822	
	379	1	1	62.57963		30.86690		10.95072	
	380	1	1	61.94280		30.38687		10.16099	
	381	1	1	61.16091		29.66031		9.81400	
	382	1	1	61.68918		29.23823		10.70979	
	383	1	1	62.76005		28.92035		10.60102	
	384	1	1	63.11140		28.73763		9.55087	
	385	1	1	62.92138		28.33520		8.52053	
	386	1	1	63.19340		29.33858		8.09758	
	387	1	1	63.68922		28.79543		7.24976	
	388	1	1	63.92896		29.85244		6.95836	
	389	1	1	63.44247		30.20866		6.01174	
	390	1	1	62.71699		29.40367		5.71965	
	391	1	1	62.72129		29.52490		4.60388	
	392	1	1	61.77421		29.72257		5.17275	
	393	1	1	61.99967		30.70105		5.67415	
	394	1	1	61.85232		30.91827		6.76536	
	395	1	1	61.96160		30.01149		7.41762	
	396	1	1	61.97110		28.89218		7.33573	
	397	1	1	61.49126		28.46933		6.41346	
	398	1	1	60.82848		28.62428		7.30585	
	399	1	1	60.50411		29.44328		8.00132	
	400	1	1	59.60002		29.82594		8.54522	
	401	1	1	59.20279		28.79044		8.37321	
	402	1	1	59.02345		27.74349		8.73568	
	403	1	1	59.81617		27.66418		7.94514	
	404	1	1	60.24267		27.15468		8.84966	
	405	1	1	60.52983		26.45026		9.67487	
	406	1	1	61.06165		26.01836		10.56385	
	407	1	1	61.36083		25.25156		9.80087	
	408	1	1	61.15059		24.80428		10.80853	
	409	1	1	62.16966		25.03051		11.22079	
	410	1	1	61.73362		24.03724		11.50875	
	411	1	1	62.65690		24.15900		12.13516	
	412	1	1	62.06402		23.23219		12.35687	
	413	1	1	62.61929		22.32751		12.72138	
	414	1	1	61.90262		22.10501		13.55596	
	415	1	1	62.43173		21.13396		13.36427	
	416	1	1	63.05088		20.57007		12.61706	
	417	1	1	63.86835		20.50416		11.85087	
	418	1	1	63.26225		19.57587		12.02571	
	419	1	1	64.05340		18.86136		11.67472	
	420	1	1	63.94516		19.01294		10.56794	
	421	1	1	64.10750		20.10850		10.38619	
	422	1	1	64.31404		19.92978		9.29759	
	423	1	1	65.25695		19.79907		9.89214	
	424	1	1	65.82711		20.27106		10.73582	
	425	1	1	66.68608		19.54927		10.76467	
	426	1	1	67.42306		18.78999		11.13884	
	427	1	1	67.76547		19.24113		10.16989	
	428	1	1	67.77354		19.83629		9.21838	
	429	1	1	68.18238		19.55632		8.21134	
	430	1	1	67.55728		19.40362		7.29178	
	431	1	1	68.15721		20.34941		7.21964	
	432	1	1	68.04745		21.27985		6.60166	
	433	1	1	67.02796		21.64086		6.90160	
	434	1	1	67.19188		22.73412		6.70778	
	435	1	1	68.09749		22.82511		7.36448	
	436	1	1	67.73957		23.84221		7.05296	
	437	1	1	66.65832		23.63229		7.26851	
	438	1	1	65.58488		23.41313		7.02490	
	439	1	1	65.83468		23.33916		5.93321	
	440	1	1	65.52772		23.04311		4.89505	
	441	1	1	66.00110		22.02565		4.87641	
	442	1	1	66.54147		21.78042		5.82904	
	443	1	1	65.51888		21.92904		6.26709	
	444	1	1	64.73519		21.20267		6.61041	
	445	1	1	65.08903		20.52356		7.43093	
	446	1	1	65.56098		19.85677		8.20054	
	447	1	1	65.87437		18.80031		7.98764	
	448	1	1	66.05437		17.69313		7.94999	
	449	1	1	65.55725		16.72678		8.23049	
	450	1	1	65.48212		15.60708		8.24708	
	451	1	1	64.68498		15.57945		9.03667	
	452	1	1	64.56217		14.61958		8.46816	
	453	1	1	65.22422		13.82471		8.90351	
	454	1	1	66.33798		13.94437		8.83373	
	455	1	1	67.39045		14.21081		9.11824	
	456	1	1	67.60748		13.22250		8.63267	
	457	1	1	67.28197		13.59885		7.62666	
	458	1	1	68.09899		13.00925		7.13221	
	459	1	1	67.52104		13.27083		6.20636	
	460	1	1	68.09152		13.40927		5.24978	
	461	1	1	68.58601		14.40565		5.10024	
	462	1	1	69.52735		13.95350		4.68906	
	463	1	1	70.10095		14.15715		5.63201	
	464	1	1	69.74609		15.20700		5.45447	
	465	1	1	70.05544		15.15308		6.53198	
	466	1	1	69.42293		15.47971		7.39968	
	467	1	1	69.62483		16.38486		6.76755	
	468	1	1	69.20456		17.27280		6.22480	
	469	1	1	68.33062		17.51366		6.88652	
	470	1	1	68.61794		18.55117		7.20381	
	471	1	1	69.34847		19.23789		7.70819	
	472	1	1	69.72366		18.65471		8.59067	
	473	1	1	70.56263		17.91085		8.54124	
	474	1	1	70.55941		17.99427		9.66047	
	475	1	1	71.44764		17.91460		10.34190	
	476	1	1	72.10302		17.00486		10.39195	
	477	1	1	71.31015		16.61490		11.08399	
	478	1	1	70.80573		15.79541		10.50637	
	479	1	1	70.36569		15.37743		11.45046	
	480	1	1	69.93575		14.41933		11.05440	
	481	1	1	68.83082		14.56084		10.91752	
	482	1	1	68.61008		14.27618		11.98049	
	483	1	1	69.12966		15.24996		11.77690	
	484	1	1	69.25052		16.35908		11.65490	
	485	1	1	68.15396		16.59509		11.69356	
	486	1	1	68.39508		16.37484		10.61979	
	487	1	1	68.72884		16.12819		9.57700	
	488	1	1	69.65104		15.54013		9.32525	
	489	1	1	69.14478		15.00345		8.47948	
	490	1	1	69.75770		14.06636		8.40311	
	491	1	1	70.02039		13.96638		9.48969	
	492	1	1	68.90398		13.98001		9.37531	
	493	1	1	69.38957		13.01177		9.08145	
	494	1	1	69.32047		12.21672		8.29229	
	495	1	1	68.43799		12.05207		8.96591	
	496	1	1	68.81649		11.19949		9.59000	
	497	1	1	68.25008		10.78030		10.46356	
	498	1	1	67.61915		11.36000		11.18850	
	499	1	1	67.51833		12.22038		11.90210	
	500	1	1	68.15629		13.00543		12.38827	
	501	1	1	68.50769		12.94742		11.32394	
	502	1	1	68.51677		11.95377		10.80218	
	503	1	1	69.51452		12.44215		10.96227	
	504	1	1	69.78939		12.28485		12.03900	
	505	1	1	69.15031		11.37023		11.91769	
	506	1	1	69.37814		11.09450		12.98151	
	507	1	1	68.67219		10.33665		12.54915	
	508	1	1	68.24547		9.69211		11.73544	
	509	1	1	68.45986		9.34761		10.68901	
	510	1	1	68.62513		9.74540		9.65262	
	511	1	1	68.44430		9.82145		8.54756	
	512	1	1	68.61805		10.81656		8.05847	
	513	1	1	67.83976		11.47815		7.59349	
	514	1	1	66.81717		11.33991		7.15206	
	515	1	1	66.44538		10.39578		6.67243	
	516	1	1	67.11209		9.91746		7.43817	
	517	1	1	67.94854		9.20429		7.21148	
	518	1	1	68.21209		8.11337		7.22055	
	519	1	1	68.88660		7.34950		7.69085	
	520	1	1	69.78363		7.43891		7.02227	
	521	1	1	69.46402		7.28198		5.95791	
	522	1	1	70.33579		6.61009		5.73829	
	523	1	1	69.37115		6.03752		5.70273	
	524	1	1	68.66519		6.39877		4.90852	
	525	1	1	69.64488		6.46637		4.36512	
	526	1	1	70.42714		5.66365		4.42304	
	527	1	1	71.11814		6.48727		4.74522	
	528	1	1	70.96349		7.23999		3.92721	
	529	1	1	71.25930		8.08319		3.24813	
	530	1	1	70.95669		8.91791		2.56160	
	531	1	1	71.03229		7.91058		2.07251	
	532	1	1	71.53613		8.49041		1.25423	
	533	1	1	70.67028		9.19608		1.36369	
	534	1	1	70.54319		10.26695		1.67471	
	535	1	1	70.55332		10.34119		2.79454	
	536	1	1	71.36728		9.81845		3.36363	
	537	1	1	72.11237		10.52405		2.90908	
	538	1	1	72.65990		11.32341		3.47555	
	539	1	1	72.11388		12.06453		2.83347	
	540	1	1	71.38260		12.25238		2.00306	
	541	1	1	71.90255		11.72052		1.16257	
	542	1	1	72.81702		11.22098		0.74561	
	543	1	1	72.91823		10.55464		99.84817	
	544	1	1	73.39957		9.91361		99.06266	
	545	1	1	74.51143		9.93205		99.21457	
	546	1	1	75.11555		9.30713		98.50453	
	547	1	1	74.04450		9.41518		98.18701	
	548	1	1	73.46022		8.58770		97.70375	
	549	1	1	72.87512		8.71362		98.65319	
	550	1	1	73.18780		7.98552		99.44801	
	551	1	1	72.70746		7.30064		98.69978	
	552	1	1	72.29491		6.25884		98.63580	
	553	1	1	71.48479		6.47786		97.89056	
	554	1	1	71.11605		7.02463		98.79870	
	555	1	1	70.50578		7.11873		99.73591	
	556	1	1	70.21981		6.17782		99.19503	
	557	1	1	69.86324		5.98921		98.14769	
	558	1	1	69.21775		5.24646		98.68743	
	559	1	1	68.67645		5.24128		97.70427	
	560	1	1	68.83963		4.59422		96.80187	
	561	1	1	69.86919		4.51672		97.24193	
	562	1	1	70.25446		5.50258		96.86872	
	563	1	1	71.36779		5.56477		96.74117	
	564	1	1	71.38654		4.50432		96.37409	
	565	1	1	71.91675		3.87642		97.13846	
	566	1	1	72.40499		4.86088		96.91015	
	567	1	1	73.28852		4.17542		97.00593	
	568	1	1	72.85516		4.14916		95.97096	
	569	1	1	73.02132		3.26373		95.30159	
	570	1	1	72.74587		4.17476		94.70677	
	571	1	1	71.97154		4.93611		94.99034	
	572	1	1	72.56357		5.44776		94.18575	
	573	1	1	71.49137		5.77391		94.24634	
	574	1	1	71.13633		4.73347		94.02030	
	575	1	1	70.95667		5.43060		93.15927	
	576	1	1	70.66587		6.29362		92.50331	
	577	1	1	71.21481		6.57300		91.56509	
	578	1	1	71.03605		5.74751		90.82599	
	579	1	1	70.54715		6.16899		89.90786	
	580	1	1	70.19637		5.63139		88.98722	
	581	1	1	69.74304		4.66621		88.63711	
	582	1	1	69.04644		4.22227		89.39692	
	583	1	1	68.48248		3.54943		88.69772	
	584	1	1	68.24302		2.46642		88.86914	
	585	1	1	67.19734		2.12877		89.09760	
	586	1	1	67.32329		2.94064		88.33297	
	587	1	1	67.41077		4.00574		87.99011	
	588	1	1	66.77060		4.25303		88.87819	
	589	1	1	66.15470		3.72645		88.10164	
	590	1	1	65.17710		4.19931		88.38512	
	591	1	1	64.51363		5.03837		88.04539	
	592	1	1	64.97198		5.45313		87.10862	
	593	1	1	65.28214		4.71207		86.32486	
	594	1	1	65.73499		3.68997		86.42427	
	595	1	1	66.64383		3.03253		86.46208	
	596	1	1	67.24036		2.33472		85.81643	
	597	1	1	68.35319		2.35730		85.96045	
	598	1	1	69.09250		2.89628		86.61051	
	599	1	1	68.88698		3.21608		87.66651	
	600	1	1	69.33972		2.46353		88.36532	
	601	1	1	68.94691		1.54751		87.84932	
	602	1	1	69.54408		0.88262		87.17038	
	603	1	1	70.52520		1.41431		87.05054	
	604	1	1	70.75227		0.31896		86.95945	
	605	1	1	70.61056		99.42814		87.62729	
	606	1	1	71.63723		99.49400		87.17867	
	607	1	1	72.09005		0.29203		86.53234	
	608	1	1	72.03491		0.84358		85.55643	
	609	1	1	72.94362		0.48164		85.00607	
	610	1	1	72.37310		0.99777		84.18890	
	611	1	1	72.94766		0.35471		83.47057	
	612	1	1	72.55981		99.72834		82.62388	
	613	1	1	71.44864		99.70677		82.78038	
	614	1	1	71.00039		99.80277		81.75593	
	615	1	1	71.51901		99.28712		80.90459	
	616	1	1	72.20563		0.07857		81.30683	
	617	1	1	73.29918		0.31795		81.22616	
	618	1	1	73.95586		0.18823		80.32528	
	619	1	1	73.93849		0.86994		79.43388	
	620	1	1	72.87989		0.54965		79.24300	
	621	1	1	71.86847		0.27849		78.83908	
	622	1	1	72.37617		0.95348		78.09997	
	623	1	1	72.58168		2.05648		78.12840	
	624	1	1	72.67299		1.72487		77.06007	
	625	1	1	73.37396		2.60140		77.06196	
	626	1	1	72.86647		3.34938		76.39665	
	627	1	1	71.87749		3.62185		76.85199	
	628	1	1	71.87718		4.48935		76.13989	
	629	1	1	71.25046		5.18576		76.75786	
	630	1	1	71.94632		5.22873		77.63739	
	631	1	1	71.08873		4.50965		77.72170	
	632	1	1	70.14254		3.90755		77.67867	
	633	1	1	69.82998		3.50520		78.67870	
	634	1	1	70.75791		3.42922		79.30546	
	635	1	1	71.42907		2.53166		79.24556	
	636	1	1	70.60688		1.93200		78.77221	
	637	1	1	71.18617		2.37484		77.91901	
	638	1	1	70.81608		1.92428		76.96002	
	639	1	1	70.72972		2.43871		75.96627	
	640	1	1	70.47814		1.76618		75.10368	
	641	1	1	71.16864		2.49393		74.60045	
	642	1	1	70.16759		3.00078		74.62597	
	643	1	1	69.23621		3.06430		74.00297	
	644	1	1	68.96468		2.01370		73.71635	
	645	1	1	68.16247		2.77396		73.52117	
	646	1	1	67.13548		2.33117		73.42695	
	647	1	1	66.81728		1.26089		73.31333	
	648	1	1	67.34618		1.16261		72.32832	
	649	1	1	67.61215		1.00075		71.25003	
	650	1	1	67.12672		0.29263		70.52714	
	651	1	1	66.75411		0.23185		69.47020	
	652	1	1	67.54967		99.44218		69.41399	
	653	1	1	67.16520		98.80871		70.25692	
	654	1	1	67.93324		98.92557		71.06693	
	655	1	1	68.82213		98.57718		71.65698	
	656	1	1	69.42308		99.19289		72.37768	
	657	1	1	69.04226		98.99616		73.41494	
	658	1	1	68.56469		97.98417		73.50123	
	659	1	1	69.55775		97.65210		73.09725	
	660	1	1	69.46758		96.77482		72.40307	
	661	1	1	69.00436		96.14531		71.59760	
	662	1	1	68.51499		95.87139		72.56978	
	663	1	1	68.69783		95.07892		73.34321	
	664	1	1	67.67291		94.98940		73.79176	
	665	1	1	66.80162		95.17128		74.47543	
	666	1	1	66.23142		95.45516		75.39952	
	667	1	1	65.13914		95.20285		75.45347	
	668	1	1	64.79615		94.13447		75.47724	
	669	1	1	63.98538		94.04982		74.70579	
	670	1	1	64.05286		94.77217		73.84946	
	671	1	1	64.64885		95.32807		73.07783	
	672	1	1	65.71389		95.32241		72.72383	
	673	1	1	66.09542		94.69471		71.87526	
	674	1	1	66.26333		95.31609		70.95584	
	675	1	1	65.17333		95.24496		71.21368	
	676	1	1	64.91677		94.15237		71.22254	
	677	1	1	64.24940		94.42448		70.36217	
	678	1	1	63.89686		95.42814		70.71999	
	679	1	1	64.36302		96.04745		69.90832	
	680	1	1	64.14704		97.01088		70.44199	
	681	1	1	64.24855		97.96360		71.02651	
	682	1	1	63.65269		98.89514		70.83460	
	683	1	1	64.21876		99.82824		71.09635	
	684	1	1	63.61718		0.37739		71.86848	
	685	1	1	62.68519		0.65915		71.31022	
	686	1	1	61.59024		0.85707		71.16340	
	687	1	1	61.89023		1.73780		71.79108	
	688	1	1	61.94475		0.98470		72.62145	
	689	1	1	60.82922		0.89355		72.70472	
	690	1	1	60.49224		0.08656		73.40817	
	691	1	1	59.92972		99.17441		73.07470	
	692	1	1	59.55477		98.46549		72.28952	
	693	1	1	60.40904		98.52378		71.56394	
	694	1	1	59.70574		98.57969		70.69107	
	695	1	1	58.75427		99.11380		70.42825	
	696	1	1	59.17241		99.29044		69.40180	
	697	1	1	59.75505		0.18549		69.05674	
	698	1	1	60.34216		1.00659		68.56607	
	699	1	1	61.38937		1.16196		68.19345	
	700	1	1	61.31301		0.51781		67.27754	
	701	1	1	61.86979		99.55503		67.12694	
	702	1	1	62.93521		99.82690		67.35190	
	703	1	1	63.28474		99.39019		68.32491	
	704	1	1	64.28070		99.70460		67.91398	
	705	1	1	64.37303		98.59114		67.80755	
	706	1	1	64.39133		98.42707		66.69742	
	707	1	1	64.86753		97.62370		66.07493	
	708	1	1	65.39977		96.74975		66.53599	
	709	1	1	65.00093		95.80313		66.98819	
	710	1	1	65.57455		94.85838		66.79313	
	711	1	1	66.43861		94.53064		66.15624	
	712	1	1	66.77447		94.71720		67.21077	
	713	1	1	66.30141		94.26992		68.12499	
	714	1	1	66.94697		93.60438		68.75741	
	715	1	1	66.81665		92.87664		69.60184	
	716	1	1	67.24679		93.30188		70.54725	
	717	1	1	66.84902		92.90454		71.51862	
	718	1	1	67.18749		93.75630		72.16638	
	719	1	1	68.08926		93.19330		71.80654	
	720	1	1	68.21191		92.20874		71.28190	
	721	1	1	68.33357		92.51253		70.20832	
	722	1	1	67.72969		91.90153		69.48606	
	723	1	1	67.70449		90.94878		70.07875	
	724	1	1	67.18854		89.97064		69.88723	
	725	1	1	66.08168		89.78506		69.87869	
	726	1	1	66.13744		90.89805		69.74535	
	727	1	1	66.47851		91.41111		70.68349	
	728	1	1	65.67300		90.97377		71.33120	
	729	1	1	65.93521		90.34997		72.22662	
	730	1	1	66.24463		89.76663		73.13415	
	731	1	1	67.20679		89.46147		72.64346	
	732	1	1	67.99557		88.88665		72.08933	
	733	1	1	67.18970		88.31454		71.55743	
	734	1	1	67.62259		87.28637		71.68045	