#-----------------------------------------------------------------------------------           
# NANOPOLY - POLYMER NANOCOMPOSITE STRUCTURAL DATA FILE                                        
#-----------------------------------------------------------------------------------           
# FILENAME:  test_structure.in                                                                  
# DATE: 2021-09-17                                                                                
#-----------------------------------------------------------------------------------           
                                                                                               
16000 atoms                                                             
15980 bonds                                                             
                                                                                               
2 atom types                                      
1 bond types                                            
                                                                                    
0.0000 10.0000 xlo xhi            
0.0000 10.0000 ylo yhi            
0.0000 10.0000 zlo zhi            
                                                                                    
                                                                                    
# Types have been converted numerically as follows:                                 
# 1 a
# 2 b
                                                                                    
Masses                                                                              
                                                                                    
1	1.0
2	0.5

Atoms                                                                               

	1	1	1	4.86307		8.99836		2.75161	
	2	1	1	4.18589		8.26645		3.26676	
	3	1	1	4.17881		8.30071		2.14497	
	4	1	1	4.31632		9.33298		2.56348	
	5	1	1	3.33559		8.79691		2.66567	
	6	1	1	4.11306		9.43378		3.16524	
	7	1	1	4.94228		9.88369		3.77321	
	8	1	1	5.25040		0.25106		4.78798	
	9	1	1	5.97315		0.84625		5.40687	
	10	1	1	5.43010		0.62887		4.44901	
	11	1	1	5.61019		1.34890		3.60713	
	12	1	1	5.41948		0.55385		2.83826	
	13	1	1	4.68881		1.35359		2.54468	
	14	1	1	4.35513		0.56989		1.81384	
	15	1	1	5.14342		9.81206		1.56100	
	16	1	1	4.99839		8.89186		2.18698	
	17	1	1	5.68355		8.20910		2.75622	
	18	1	1	5.89084		8.05747		3.84878	
	19	1	1	6.38129		7.04945		3.79402	
	20	1	1	5.88823		7.31537		2.82148	
	21	1	1	5.92253		6.30037		2.34372	
	22	1	1	5.29495		5.79374		3.12417	
	23	1	1	5.82637		6.36915		3.92801	
	24	1	1	5.92282		7.44858		4.21986	
	25	1	1	4.89576		7.42727		3.76783	
	26	1	1	5.55893		6.57274		3.46845	
	27	1	1	4.78122		5.79969		3.22928	
	28	1	1	3.87187		6.23184		2.73333	
	29	1	1	2.80858		5.94985		2.51075	
	30	1	1	3.90535		5.71274		2.53340	
	31	1	1	3.29673		6.58674		2.17935	
	32	1	1	3.25522		7.56648		2.72528	
	33	1	1	2.75530		6.79554		3.36977	
	34	1	1	2.53004		5.76917		3.76408	
	35	1	1	3.58209		6.14413		3.65341	
	36	1	1	3.60784		5.14600		4.16598	
	37	1	1	2.96244		4.74828		3.33839	
	38	1	1	3.71588		5.58010		3.33152	
	39	1	1	4.51537		5.38718		4.09523	
	40	1	1	5.29588		4.68655		4.49470	
	41	1	1	4.99014		3.95066		3.70437	
	42	1	1	3.97821		4.25394		3.32534	
	43	1	1	3.40365		5.02498		2.74653	
	44	1	1	2.72116		4.22408		3.13694	
	45	1	1	3.30928		3.88169		4.02943	
	46	1	1	4.03103		3.92509		4.88782	
	47	1	1	4.55920		4.91437		4.93242	
	48	1	1	4.94897		4.69231		3.90363	
	49	1	1	5.23025		3.70912		4.36609	
	50	1	1	5.76115		3.49503		3.40071	
	51	1	1	5.64901		3.09318		4.44263	
	52	1	1	4.86284		3.86063		4.21327	
	53	1	1	4.98725		4.78477		4.83787	
	54	1	1	4.16534		5.36261		4.33765	
	55	1	1	4.96714		5.83409		4.96573	
	56	1	1	5.34520		6.68065		5.59822	
	57	1	1	5.91112		6.36547		6.51476	
	58	1	1	5.24930		6.98316		7.17816	
	59	1	1	6.21516		7.47178		6.88147	
	60	1	1	5.45280		8.28522		6.75196	
	61	1	1	6.48503		7.84459		6.75115	
	62	1	1	5.66693		7.85784		5.98292	
	63	1	1	4.80408		7.93861		5.26975	
	64	1	1	4.76875		6.84801		5.53241	
	65	1	1	5.44250		7.02786		4.65300	
	66	1	1	5.69865		8.00519		4.16427	
	67	1	1	4.73586		7.91968		3.59386	
	68	1	1	4.55954		7.36093		4.55112	
	69	1	1	3.82118		6.99133		3.79095	
	70	1	1	3.03665		6.21804		4.00581	
	71	1	1	3.83953		5.87536		4.71121	
	72	1	1	4.34195		6.20413		3.76299	
	73	1	1	4.51703		5.26099		3.18034	
	74	1	1	4.71686		4.82094		4.19329	
	75	1	1	4.96238		5.76164		3.63252	
	76	1	1	4.84055		5.40611		2.57497	
	77	1	1	5.69199		4.67494		2.56620	
	78	1	1	6.51720		3.98402		2.88448	
	79	1	1	5.96725		3.95998		3.86255	
	80	1	1	5.30426		3.61152		3.02669	
	81	1	1	4.58269		4.26662		3.58332	
	82	1	1	3.52641		4.01543		3.86762	
	83	1	1	3.28929		4.05165		4.96403	
	84	1	1	4.27740		4.58097		5.01977	
	85	1	1	3.20362		4.58410		5.34630	
	86	1	1	4.31509		4.44686		5.42006	
	87	1	1	4.07693		5.05665		6.33170	
	88	1	1	4.79455		5.73607		6.86373	
	89	1	1	5.72744		5.46574		6.30134	
	90	1	1	4.93544		4.75459		6.65723	
	91	1	1	6.04581		4.91747		6.67122	
	92	1	1	5.39380		5.80938		6.47369	
	93	1	1	5.93159		6.70649		6.88067	
	94	1	1	6.38071		5.68938		7.03370	
	95	1	1	7.47264		5.62875		6.78138	
	96	1	1	6.59684		5.89493		6.13194	
	97	1	1	5.51920		5.95114		6.44045	
	98	1	1	5.73347		6.98253		6.05320	
	99	1	1	5.78502		5.90967		6.37869	
	100	1	1	5.98008		5.85533		7.48261	
	101	1	1	7.05254		5.57661		7.30430	
	102	1	1	6.21950		5.65039		6.55580	
	103	1	1	6.71352		6.45719		7.15968	
	104	1	1	6.35993		7.47933		6.85995	
	105	1	1	6.63739		7.83298		5.83156	
	106	1	1	5.63932		8.34486		5.79326	
	107	1	1	6.09162		9.37203		5.79496	
	108	1	1	6.73353		9.81657		4.98875	
	109	1	1	6.00969		9.25799		4.33783	
	110	1	1	5.14291		8.64573		4.70317	
	111	1	1	4.14743		9.14505		4.84224	
	112	1	1	3.75427		0.14242		4.51006	
	113	1	1	3.49363		9.84890		5.56152	
	114	1	1	3.84578		8.78663		5.47650	
	115	1	1	4.68622		8.06204		5.30832	
	116	1	1	4.97307		7.65177		6.31283	
	117	1	1	4.18301		7.19852		5.65708	
	118	1	1	3.69702		6.30576		5.18121	
	119	1	1	3.85621		6.21824		4.07367	
	120	1	1	3.65328		5.17917		4.44623	
	121	1	1	4.32693		4.35082		4.10028	
	122	1	1	3.46550		3.65634		4.28808	
	123	1	1	2.98551		3.96968		5.25300	
	124	1	1	3.79997		4.14737		4.50152	
	125	1	1	3.31096		4.92906		5.14143	
	126	1	1	3.61314		4.31122		6.02834	
	127	1	1	3.12523		3.65173		5.26241	
	128	1	1	3.83676		4.45430		5.59293	
	129	1	1	3.72471		5.55141		5.38447	
	130	1	1	4.64304		4.98956		5.06721	
	131	1	1	3.81038		4.37041		4.63944	
	132	1	1	3.38083		3.33502		4.69504	
	133	1	1	4.06490		3.96070		4.06242	
	134	1	1	4.68738		4.64364		3.42542	
	135	1	1	5.17356		5.04057		4.35586	
	136	1	1	5.39347		4.07974		4.89262	
	137	1	1	5.49452		2.98842		5.13436	
	138	1	1	4.74895		2.18955		4.87824	
	139	1	1	3.87629		1.90363		5.52350	
	140	1	1	3.31948		2.71032		6.07019	
	141	1	1	3.76691		3.35807		5.27027	
	142	1	1	3.42026		3.45763		6.33308	
	143	1	1	3.93519		2.52628		5.97659	
	144	1	1	3.44550		3.52751		5.84475	
	145	1	1	3.95811		3.47255		6.84168	
	146	1	1	3.03019		4.06174		7.06854	
	147	1	1	3.43766		3.18108		6.50458	
	148	1	1	4.44155		3.25878		7.00039	
	149	1	1	4.36361		3.62349		5.94182	
	150	1	1	4.79306		4.36593		5.21795	
	151	1	1	5.12685		4.97345		4.33526	
	152	1	1	5.53355		3.95367		4.10226	
	153	1	1	6.42802		4.56646		3.81233	
	154	1	1	6.27154		3.53508		3.39829	
	155	1	1	5.65792		2.60115		3.50259	
	156	1	1	5.57495		2.83263		2.40752	
	157	1	1	5.47983		1.81124		1.95215	
	158	1	1	5.02061		2.01184		2.95640	
	159	1	1	4.67463		2.76493		3.71324	
	160	1	1	5.21929		1.94854		4.25776	
	161	1	1	4.75391		2.95679		4.42057	
	162	1	1	4.53126		3.10542		5.51051	
	163	1	1	4.51235		3.14333		4.38897	
	164	1	1	3.84805		3.60255		5.16838	
	165	1	1	3.60658		4.19663		6.08947	
	166	1	1	4.56245		4.78029		6.16236	
	167	1	1	5.38654		4.08467		5.85147	
	168	1	1	5.06503		3.71816		6.86239	
	169	1	1	4.12465		4.01648		6.32729	
	170	1	1	4.14551		5.13428		6.42597	
	171	1	1	3.82625		6.06890		6.95908	
	172	1	1	4.18168		5.00482		6.92661	
	173	1	1	3.94655		6.08495		6.73248	
	174	1	1	3.31466		5.43133		7.39062	
	175	1	1	3.49518		6.46737		6.99860	
	176	1	1	4.14255		6.93736		6.21141	
	177	1	1	3.64366		5.95491		5.99801	
	178	1	1	3.58039		5.25153		5.12571	
	179	1	1	2.63883		4.66884		5.30897	
	180	1	1	3.57670		4.59928		5.92150	
	181	1	1	3.19692		5.16441		6.81371	
	182	1	1	2.48235		4.31058		6.67222	
	183	1	1	3.49376		4.70880		6.39273	
	184	1	1	3.62262		5.43718		5.54863	
	185	1	1	3.69817		5.45780		4.42903	
	186	1	1	4.34735		4.88494		3.71486	
	187	1	1	4.17626		5.75674		4.40067	
	188	1	1	4.65451		6.27079		5.27628	
	189	1	1	4.24912		7.06832		4.59859	
	190	1	1	4.51190		5.97779		4.56203	
	191	1	1	4.23044		4.93555		4.25513	
	192	1	1	4.05249		5.90140		3.71189	
	193	1	1	2.98594		6.23082		3.82851	
	194	1	1	3.44581		6.22360		4.85229	
	195	1	1	2.69011		5.96056		5.63929	
	196	1	1	3.53267		6.63341		5.32781	
	197	1	1	3.46195		5.53658		5.55498	
	198	1	1	4.37187		5.38950		6.19534	
	199	1	1	4.69547		4.43004		6.67946	
	200	1	1	4.12188		3.90437		5.87057	
	201	1	1	4.77332		3.30205		5.18319	
	202	1	1	5.31084		2.63576		4.45740	
	203	1	1	5.65218		3.58843		3.97207	
	204	1	1	5.73406		3.07693		4.96771	
	205	1	1	6.51187		3.20245		5.76703	
	206	1	1	6.47886		4.04112		5.02192	
	207	1	1	7.29936		4.80216		4.93678	
	208	1	1	6.62713		5.69466		4.83095	
	209	1	1	5.96654		4.90317		5.27457	
	210	1	1	5.11582		4.21067		5.03713	
	211	1	1	5.69840		3.40459		4.51706	
	212	1	1	5.66388		2.57701		5.27440	
	213	1	1	6.56195		3.18332		5.56682	
	214	1	1	6.27103		3.90352		6.37695	
	215	1	1	6.79316		4.67412		7.00402	
	216	1	1	5.90395		4.00219		7.13620	
	217	1	1	5.08060		4.76301		7.19004	
	218	1	1	4.35238		4.74402		6.33623	
	219	1	1	4.45469		5.41399		5.44163	
	220	1	1	4.91022		6.12317		4.70054	
	221	1	1	3.89385		6.57790		4.84145	
	222	1	1	3.90788		7.63265		5.22479	
	223	1	1	2.89365		8.01201		4.92972	
	224	1	1	3.15207		7.61947		3.91051	
	225	1	1	4.02380		7.61999		4.61742	
	226	1	1	4.76978		6.79096		4.74338	
	227	1	1	4.49279		5.92393		4.08673	
	228	1	1	4.55525		4.86504		4.45348	
	229	1	1	4.70789		5.83011		3.90123	
	230	1	1	5.06085		4.80329		3.61714	
	231	1	1	5.62650		5.67458		4.04202	
	232	1	1	5.07794		5.93380		4.98623	
	233	1	1	4.79187		6.22198		6.03255	
	234	1	1	4.96716		7.15829		6.62605	
	235	1	1	4.54185		7.87212		5.87159	
	236	1	1	5.63318		7.80319		5.61879	
	237	1	1	5.19022		6.80743		5.35067	
	238	1	1	4.94443		5.86976		5.91635	
	239	1	1	3.82213		5.86899		5.92553	
	240	1	1	2.74390		6.17200		5.85305	
	241	1	1	3.29115		7.01587		5.35502	
	242	1	1	3.76802		6.72083		4.38281	
	243	1	1	3.68076		7.80278		4.66816	
	244	1	1	4.41937		7.44534		3.90242	
	245	1	1	3.55998		6.73188		4.01226	
	246	1	1	3.61881		5.61133		4.03609	
	247	1	1	3.73368		4.51479		4.24595	
	248	1	1	3.19661		5.23320		3.57135	
	249	1	1	2.79401		4.39089		4.19431	
	250	1	1	2.00207		4.99191		3.67350	
	251	1	1	1.55830		5.66224		4.45668	
	252	1	1	2.53981		5.77426		3.92401	
	253	1	1	3.05734		6.57099		3.32649	
	254	1	1	4.12402		6.22344		3.35867	
	255	1	1	5.12012		5.84454		3.71064	
	256	1	1	5.11886		5.24472		2.76203	
	257	1	1	5.03262		6.27279		3.20393	
	258	1	1	4.22406		5.66964		2.71191	
	259	1	1	4.46907		4.79495		3.37110	
	260	1	1	4.75217		4.96779		4.44331	
	261	1	1	3.69997		4.59689		4.32097	
	262	1	1	4.39255		3.74650		4.08260	
	263	1	1	4.64525		2.76648		3.59748	
	264	1	1	5.45350		3.33029		4.13460	
	265	1	1	4.76385		4.21563		4.12066	
	266	1	1	3.83701		4.27174		3.49022	
	267	1	1	4.84716		3.89561		3.80286	
	268	1	1	4.82218		4.57802		4.69356	
	269	1	1	5.64678		5.16879		4.21328	
	270	1	1	4.90037		4.43918		4.62583	
	271	1	1	5.06664		4.57149		3.52379	
	272	1	1	4.84273		5.57230		3.06783	
	273	1	1	4.62114		6.54428		3.58339	
	274	1	1	4.07362		6.70788		4.54936	
	275	1	1	3.30743		6.59342		5.36146	
	276	1	1	3.54833		5.78422		6.10092	
	277	1	1	2.90055		6.67648		5.89137	
	278	1	1	2.10789		5.99366		5.48506	
	279	1	1	3.12696		6.05192		5.01841	
	280	1	1	3.08779		5.77500		6.10535	
	281	1	1	3.19533		6.78190		6.58932	
	282	1	1	3.07288		6.58280		7.68705	
	283	1	1	3.42186		5.62443		7.21867	
	284	1	1	3.12251		6.34872		6.41527	
	285	1	1	3.40502		5.63329		7.23258	
	286	1	1	4.36614		5.11478		7.49154	
	287	1	1	5.11896		5.94178		7.39677	
	288	1	1	5.30215		4.90059		7.77361	
	289	1	1	6.13187		5.65155		7.85886	
	290	1	1	5.33443		4.94977		8.22112	
	291	1	1	4.47295		5.43575		7.69072	
	292	1	1	5.29772		5.06684		7.02491	
	293	1	1	5.64281		4.03929		6.73388	
	294	1	1	6.15756		4.56253		5.88482	
	295	1	1	5.74311		3.65296		6.39527	
	296	1	1	4.63963		3.67583		6.59888	
	297	1	1	4.24428		4.00369		5.60096	
	298	1	1	3.95711		4.99704		5.16455	
	299	1	1	3.23048		5.07086		6.01672	
	300	1	1	4.17797		5.67246		6.01712	
	301	1	1	3.19303		5.36455		6.45841	
	302	1	1	2.98757		5.02981		7.50979	
	303	1	1	3.81014		4.81262		6.77776	
	304	1	1	2.93131		4.22096		6.40730	
	305	1	1	3.30124		3.40813		5.72752	
	306	1	1	4.36447		3.14190		5.96898	
	307	1	1	4.80647		4.04515		5.47056	
	308	1	1	5.42903		3.52519		4.69485	
	309	1	1	5.45999		3.71843		3.58971	
	310	1	1	5.53984		4.44950		4.43753	
	311	1	1	5.94781		3.89990		5.32700	
	312	1	1	5.98842		4.96000		5.69330	
	313	1	1	6.01684		5.96890		6.18418	
	314	1	1	5.90565		7.02295		6.55332	
	315	1	1	6.03782		6.34287		7.43630	
	316	1	1	5.60795		6.26148		6.40275	
	317	1	1	6.68709		6.56755		6.36494	
	318	1	1	7.78356		6.67869		6.15268	
	319	1	1	7.83228		6.08726		5.20006	
	320	1	1	6.91739		6.19094		4.55828	
	321	1	1	6.62805		6.62586		5.55165	
	322	1	1	5.52689		6.81113		5.66468	
	323	1	1	5.72359		6.90998		4.56414	
	324	1	1	5.00911		7.60735		5.07683	
	325	1	1	4.29073		6.85302		5.49463	
	326	1	1	4.37326		7.60530		4.66583	
	327	1	1	3.98990		8.09675		5.59919	
	328	1	1	4.42254		7.46060		4.78201	
	329	1	1	5.44383		6.99599		4.80945	
	330	1	1	6.50975		7.20569		4.52751	
	331	1	1	5.82606		6.34439		4.75195	
	332	1	1	6.56332		6.07800		5.55516	
	333	1	1	7.64136		5.83407		5.74997	
	334	1	1	8.09837		6.45509		4.93442	
	335	1	1	6.98197		6.54649		4.86404	
	336	1	1	7.91920		6.25364		4.32044	
	337	1	1	8.34345		5.32180		3.86073	
	338	1	1	7.95058		5.71190		4.83701	
	339	1	1	7.30539		5.85787		5.74369	
	340	1	1	6.65652		5.02660		6.12790	
	341	1	1	6.22120		5.21728		5.11114	
	342	1	1	5.83194		5.39205		6.14921	
	343	1	1	5.96000		4.30405		6.39316	
	344	1	1	5.80191		5.12716		5.64673	
	345	1	1	5.17039		4.96608		4.73302	
	346	1	1	4.21313		4.49944		5.08734	
	347	1	1	3.67487		4.67101		6.05712	
	348	1	1	4.66927		4.15140		6.02855	
	349	1	1	3.77999		4.37017		6.67736	
	350	1	1	4.82734		4.39433		7.08000	
	351	1	1	5.10512		5.28901		6.46191	
	352	1	1	4.90455		5.29698		5.35767	
	353	1	1	5.70099		5.95323		4.91647	
	354	1	1	5.06139		5.16061		5.38797	
	355	1	1	5.44515		4.15601		5.70914	
	356	1	1	6.26914		3.80954		5.03043	
	357	1	1	6.97248		4.44508		4.42956	
	358	1	1	6.14285		4.71505		3.72354	
	359	1	1	5.56851		3.79797		4.02143	
	360	1	1	5.48583		4.89925		3.82148	
	361	1	1	5.83253		5.70220		4.52485	
	362	1	1	5.52724		6.67915		4.06438	
	363	1	1	4.53604		7.20506		4.08850	
	364	1	1	5.25819		6.67308		4.76315	
	365	1	1	5.53074		7.00804		5.79908	
	366	1	1	4.80364		6.61794		6.55986	
	367	1	1	4.69644		6.26285		5.50058	
	368	1	1	4.51362		6.31616		4.39452	
	369	1	1	5.56816		6.27657		4.01240	
	370	1	1	5.65726		5.17093		4.18343	
	371	1	1	6.38796		4.64470		3.51350	
	372	1	1	6.51556		4.15196		4.51378	
	373	1	1	7.41489		4.79724		4.69941	
	374	1	1	7.70915		5.72839		5.25261	
	375	1	1	8.63142		6.03328		5.81483	
	376	1	1	8.04721		5.08379		5.94448	
	377	1	1	7.11028		4.47043		6.01926	
	378	1	1	7.31902		5.56789		6.12725	
	379	1	1	7.31401		4.97756		7.08178	
	380	1	1	7.87553		4.09084		6.68419	
	381	1	1	7.06484		4.21823		5.91855	
	382	1	1	6.11938		3.65693		5.69338	
	383	1	1	5.15399		4.17934		5.45937	
	384	1	1	5.35775		3.78832		4.42727	
	385	1	1	5.85646		4.78388		4.28656	
	386	1	1	6.22311		5.42915		5.12848	
	387	1	1	5.23289		5.24470		4.63342	
	388	1	1	4.73235		5.72032		5.51824	
	389	1	1	4.91834		6.51676		6.28684	
	390	1	1	4.99679		5.39952		6.21426	
	391	1	1	6.06201		5.63561		6.47736	
	392	1	1	5.31946		5.80447		7.30183	
	393	1	1	4.83991		4.82170		7.04914	
	394	1	1	5.38430		3.99956		7.58520	
	395	1	1	4.68152		3.78472		6.73691	
	396	1	1	5.39256		4.64436		6.85975	
	397	1	1	6.08255		3.80421		6.58100	
	398	1	1	7.13759		3.45585		6.42231	
	399	1	1	6.47072		3.32567		5.52901	
	400	1	1	6.15942		2.55048		4.77947	
	401	1	2	5.65980		3.10025		3.93818	
	402	1	2	6.70026		2.73089		4.13982	
	403	1	2	7.15045		2.94969		5.14437	
	404	1	2	6.39837		2.87291		4.31483	
	405	1	2	6.45195		3.99282		4.36560	
	406	1	2	7.05367		4.87802		4.70324	
	407	1	2	8.00134		5.37227		5.04571	
	408	1	2	7.64656		4.81097		4.14088	
	409	1	2	8.33890		5.54766		3.65344	
	410	1	2	8.22215		6.36113		4.41783	
	411	1	2	9.34221		6.43189		4.42891	
	412	1	2	9.89105		6.40368		5.40749	
	413	1	2	9.55876		5.90129		6.35450	
	414	1	2	8.47179		5.71921		6.56662	
	415	1	2	8.61046		6.61047		7.23450	
	416	1	2	9.30879		7.19566		7.88989	
	417	1	2	8.46144		6.56957		8.27673	
	418	1	2	9.25711		6.20364		7.57484	
	419	1	2	8.32782		5.86530		8.10550	
	420	1	2	8.55176		5.53023		7.05801	
	421	1	2	8.82087		4.91605		6.15800	
	422	1	2	9.37161		4.03151		5.74098	
	423	1	2	9.09813		3.16764		6.40325	
	424	1	2	8.02128		3.19233		6.08794	
	425	1	2	7.86363		2.34460		5.36950	
	426	1	2	8.59375		1.84957		6.06341	
	427	1	2	9.05875		1.33341		5.18194	
	428	1	2	9.52365		2.26138		4.75487	
	429	1	2	8.69489		1.64513		5.19423	
	430	1	2	7.92099		1.05754		4.63257	
	431	1	2	7.61332		0.45510		3.73699	
	432	1	2	7.96864		0.88383		4.71146	
	433	1	2	7.20625		1.09606		3.91562	
	434	1	2	6.67665		1.71161		4.69040	
	435	1	2	7.19912		1.28647		3.79266	
	436	1	2	7.10731		1.45420		4.89859	
	437	1	2	6.36770		1.01191		5.61763	
	438	1	2	5.42404		0.51378		5.96549	
	439	1	2	5.64353		9.79221		5.13435	
	440	1	2	5.61946		9.80187		4.01231	
	441	1	2	5.33494		9.69244		2.93216	
	442	1	2	4.90573		8.74985		3.36452	
	443	1	2	4.65288		9.07558		4.40837	
	444	1	2	5.38758		9.90338		4.22236	
	445	1	2	4.41365		0.36144		3.90411	
	446	1	2	5.21840		1.14260		3.94678	
	447	1	2	4.64870		0.64133		4.77372	
	448	1	2	4.89414		9.71473		5.35751	
	449	1	2	4.77827		0.77194		4.99899	
	450	1	2	3.96140		0.74918		4.22967	
	451	1	2	4.34756		1.74981		3.89913	
	452	1	2	5.14414		1.85527		3.11556	
	453	1	2	5.72642		1.55791		4.02779	
	454	1	2	5.13062		0.60685		4.04076	
	455	1	2	6.00789		0.70243		3.34728	
	456	1	2	5.87188		0.85914		2.24429	
	457	1	2	6.69976		1.00755		1.50117	
	458	1	2	6.23102		9.99484		1.38138	
	459	1	2	5.54184		0.77834		1.79466	
	460	1	2	5.07766		0.25610		2.67298	
	461	1	2	4.60361		1.26418		2.80972	
	462	1	2	3.78927		1.85166		3.31108	
	463	1	2	3.77276		0.85906		2.78751	
	464	1	2	3.34137		0.63687		3.79953	
	465	1	2	2.48114		1.14345		3.28668	
	466	1	2	1.46292		0.71478		3.08885	
	467	1	2	0.73616		1.16609		3.81533	
	468	1	2	1.18329		0.50503		4.60447	
	469	1	2	1.58176		1.43311		5.09389	
	470	1	2	1.28011		1.18875		4.04082	
	471	1	2	0.66168		2.12509		4.06238	
	472	1	2	1.19856		2.99752		3.60384	
	473	1	2	1.15898		3.99907		3.09888	
	474	1	2	0.36661		4.67226		3.52150	
	475	1	2	9.30108		4.50075		3.82954	
	476	1	2	9.64731		3.55316		4.32131	
	477	1	2	8.57167		3.41876		4.03047	
	478	1	2	8.04095		4.15318		3.36820	
	479	1	2	6.93952		4.02901		3.19185	
	480	1	2	6.96863		2.94252		3.47172	
	481	1	2	6.36010		2.28623		2.79450	
	482	1	2	6.00032		1.25033		3.03349	
	483	1	2	6.68436		2.07764		2.70594	
	484	1	2	7.71494		1.63454		2.67103	
	485	1	2	8.82914		1.75206		2.60478	
	486	1	2	8.51967		2.54566		1.87397	
	487	1	2	8.70135		1.86461		2.74737	
	488	1	2	7.98764		2.53083		2.19381	
	489	1	2	8.19345		1.58057		1.63319	
	490	1	2	7.61253		1.64101		2.59159	
	491	1	2	8.43709		0.95182		2.91528	
	492	1	2	8.77017		0.97682		3.98676	
	493	1	2	7.65682		1.08283		4.08091	
	494	1	2	7.33415		2.15362		3.98631	
	495	1	2	7.11730		1.11593		3.61775	
	496	1	2	6.29080		1.68016		3.10963	
	497	1	2	6.10373		2.78447		3.03785	
	498	1	2	6.36995		2.04077		2.24055	
	499	1	2	5.77599		2.60244		3.00957	
	500	1	2	6.82560		2.97601		3.14532	
	501	1	2	7.90939		3.00548		3.43544	
	502	1	2	7.56096		3.53370		2.50849	
	503	1	2	8.63560		3.25109		2.66634	
	504	1	2	7.96077		2.52491		2.14013	
	505	1	2	7.23224		2.45167		2.99073	
	506	1	2	7.87632		2.66843		2.09752	
	507	1	2	7.34759		2.18341		1.23448	
	508	1	2	6.92774		1.14862		1.34664	
	509	1	2	5.82619		1.21073		1.55252	
	510	1	2	5.63974		1.35121		2.65031	
	511	1	2	6.61751		1.90083		2.68949	
	512	1	2	6.12689		1.81774		1.68349	
	513	1	2	5.68942		1.90777		2.71314	
	514	1	2	5.07847		2.74321		2.27905	
	515	1	2	5.00509		3.31326		1.31504	
	516	1	2	5.78404		2.99264		0.57337	
	517	1	2	5.08169		3.64332		9.98775	
	518	1	2	5.02525		2.61231		9.54788	
	519	1	2	5.60135		3.51796		9.87583	
	520	1	2	6.36603		3.49191		0.69695	
	521	1	2	6.96590		2.61187		0.34293	
	522	1	2	6.16152		3.39375		0.37856	
	523	1	2	6.75129		4.29717		0.68786	
	524	1	2	6.84403		5.41181		0.59509	
	525	1	2	7.96108		5.36981		0.49466	
	526	1	2	8.35763		5.95778		9.62478	
	527	1	2	8.98499		6.45917		0.40878	
	528	1	2	8.51773		7.38228		9.97383	
	529	1	2	7.65821		7.29255		9.25772	
	530	1	2	8.23344		8.14007		8.79895	
	531	1	2	7.23754		8.56975		9.08741	
	532	1	2	6.60317		7.85640		8.49719	
	533	1	2	5.88387		7.05332		8.80914	
	534	1	2	6.99968		7.16010		8.75235	
	535	1	2	6.97706		8.06069		9.42173	
	536	1	2	7.02257		7.69642		8.36112	
	537	1	2	7.65998		6.99901		8.96689	
	538	1	2	8.16812		7.78592		8.34867	
	539	1	2	7.18886		7.68069		7.81052	
	540	1	2	6.63550		6.93960		7.17473	
	541	1	2	5.64061		7.39888		6.93204	
	542	1	2	6.37750		8.24538		6.92293	
	543	1	2	6.99384		8.15282		7.85631	
	544	1	2	6.32217		7.82369		8.69308	
	545	1	2	6.49214		8.85558		8.28569	
	546	1	2	6.76631		9.02569		7.21073	
	547	1	2	6.30075		0.02374		6.99439	
	548	1	2	6.73433		0.96656		6.56691	
	549	1	2	5.84280		1.35726		7.12564	
	550	1	2	6.42608		2.25164		6.77990	
	551	1	2	6.22847		1.14787		6.82792	
	552	1	2	7.18185		1.59770		6.44272	
	553	1	2	7.18678		2.22991		5.51540	
	554	1	2	7.65617		1.69829		6.38528	
	555	1	2	6.61133		1.35985		6.15417	
	556	1	2	5.73961		2.06531		6.10868	
	557	1	2	6.59690		2.34372		6.77739	
	558	1	2	5.61279		2.01775		6.34737	
	559	1	2	5.09456		2.14261		7.33504	
	560	1	2	4.51628		1.75031		6.45679	
	561	1	2	3.53156		1.40121		6.04678	
	562	1	2	2.76829		2.18978		6.28178	
	563	1	2	2.61240		2.22978		7.39252	
	564	1	2	1.72980		2.04731		6.72366	
	565	1	2	1.63894		2.62025		7.68445	
	566	1	2	2.60345		3.19400		7.67090	
	567	1	2	2.77270		3.84355		8.57039	
	568	1	2	2.65092		3.80146		7.45547	
	569	1	2	2.97294		4.71426		8.02357	
	570	1	2	2.19799		4.08579		8.53750	
	571	1	2	3.29649		4.05995		8.76617	
	572	1	2	2.67083		3.20594		8.39352	
	573	1	2	2.51987		2.99129		7.30229	
	574	1	2	3.16077		3.80596		7.73266	
	575	1	2	3.29103		2.69281		7.79252	
	576	1	2	4.22608		3.30820		7.87399	
	577	1	2	3.14211		3.13843		8.11031	
	578	1	2	3.86734		3.52124		7.34405	
	579	1	2	4.04910		3.21148		6.28073	
	580	1	2	4.58384		3.36430		5.30587	
	581	1	2	3.56974		2.95885		5.04728	
	582	1	2	3.19437		2.20061		5.78472	
	583	1	2	2.12562		2.30532		6.11099	
	584	1	2	2.32464		3.22173		6.72762	
	585	1	2	2.96790		2.57163		7.37817	
	586	1	2	3.57218		3.15902		6.63691	
	587	1	2	2.61011		3.16755		6.05898	
	588	1	2	3.72290		3.09010		5.93509	
	589	1	2	2.93797		2.63713		6.59717	
	590	1	2	2.61900		3.56304		6.04890	
	591	1	2	2.40399		3.26568		7.10955	
	592	1	2	1.43256		3.56928		6.63647	
	593	1	2	1.16227		4.11664		5.69467	
	594	1	2	0.68938		3.65974		6.60421	
	595	1	2	1.00275		2.63719		6.26385	
	596	1	2	1.35284		3.70344		6.27790	
	597	1	2	0.27873		3.89484		6.01469	
	598	1	2	9.79698		3.32816		5.17419	
	599	1	2	9.18288		2.40477		5.34701	
	600	1	2	0.24948		2.74612		5.27300	
	601	1	2	0.43664		3.81031		5.57650	
	602	1	2	9.46762		3.42414		5.99064	
	603	1	2	9.27867		2.68748		5.16524	
	604	1	2	9.93112		1.99411		4.57094	
	605	1	2	0.76472		2.05547		3.82194	
	606	1	2	0.13268		1.17055		4.09960	
	607	1	2	9.15202		0.64190		4.23557	
	608	1	2	8.34094		1.41246		4.32520	
	609	1	2	9.33330		1.04168		4.69588	
	610	1	2	8.41884		0.81825		5.30702	
	611	1	2	8.10493		1.88777		5.43835	
	612	1	2	8.35034		1.99200		4.34814	
	613	1	2	8.24088		1.66159		5.41514	
	614	1	2	7.81917		2.54892		5.95778	
	615	1	2	8.90947		2.79795		5.86356	
	616	1	2	9.21453		1.80124		6.27968	
	617	1	2	9.95224		1.71184		7.12078	
	618	1	2	9.46044		1.54038		8.11495	
	619	1	2	9.30137		2.63647		8.29646	
	620	1	2	0.17284		2.87624		7.63111	
	621	1	2	0.06496		2.80290		6.51638	
	622	1	2	0.25706		3.90841		6.54098	
	623	1	2	9.21175		4.25884		6.75116	
	624	1	2	8.28241		3.70216		6.45779	
	625	1	2	8.91648		3.85615		7.37096	
	626	1	2	8.78501		4.97006		7.41075	
	627	1	2	9.51512		4.13593		7.23517	
	628	1	2	9.71498		3.45366		6.36673	
	629	1	2	8.69784		3.71086		6.76538	
	630	1	2	8.20451		4.04734		5.81509	
	631	1	2	8.68688		4.76101		6.53456	
	632	1	2	8.38837		5.41462		5.67240	
	633	1	2	8.61477		4.52793		5.02266	
	634	1	2	8.28401		3.70190		5.70671	
	635	1	2	7.55177		2.90278		5.41535	
	636	1	2	7.75860		1.83447		5.14041	
	637	1	2	7.25150		1.55823		6.10279	
	638	1	2	6.44212		1.78886		5.36026	
	639	1	2	6.91232		2.48027		6.10893	
	640	1	2	7.30504		3.53052		6.15801	
	641	1	2	7.67268		4.49777		5.72338	
	642	1	2	8.53388		5.19609		5.89757	
	643	1	2	8.67804		5.81192		6.82473	
	644	1	2	9.22365		6.06214		5.87639	
	645	1	2	8.69229		6.49815		4.98915	
	646	1	2	8.89060		5.73032		4.19495	
	647	1	2	9.63731		5.08556		4.73008	
	648	1	2	0.17968		4.77210		3.79883	
	649	1	2	0.65923		5.31694		2.94278	
	650	1	2	0.56639		4.79039		3.92958	
	651	1	2	0.44453		5.82036		4.35848	
	652	1	2	0.89355		4.85787		3.99566	
	653	1	2	0.44393		4.05344		4.63627	
	654	1	2	9.82241		4.63641		3.90585	
	655	1	2	9.64509		3.83114		4.66727	
	656	1	2	0.74864		3.62844		4.64028	
	657	1	2	9.86215		3.88455		4.00139	
	658	1	2	0.21694		3.06821		3.31776	
	659	1	2	9.31213		2.55784		2.89291	
	660	1	2	8.68671		2.70485		1.97265	
	661	1	2	8.80694		2.03694		2.86657	
	662	1	2	9.26887		3.01978		3.14994	
	663	1	2	8.56122		2.23048		2.78133	
	664	1	2	8.65822		3.24303		2.30703	
	665	1	2	9.66158		2.90943		1.93070	
	666	1	2	0.09219		2.16237		2.64911	
	667	1	2	9.75057		3.22419		2.77360	
	668	1	2	0.78093		3.19923		2.32933	
	669	1	2	0.66108		2.08466		2.38421	
	670	1	2	9.58586		1.78244		2.49470	
	671	1	2	8.86480		1.37438		1.73760	
	672	1	2	8.46784		0.37333		1.42141	
	673	1	2	7.66373		1.14235		1.56861	
	674	1	2	7.40399		1.42136		0.51299	
	675	1	2	6.65182		2.21451		0.25844	
	676	1	2	7.17877		1.64189		9.44969	
	677	1	2	7.01838		2.45446		8.69229	
	678	1	2	6.43785		2.69647		7.76274	
	679	1	2	6.10401		1.68717		8.12262	
	680	1	2	5.69462		2.69297		8.40622	
	681	1	2	5.80897		2.57442		9.51641	
	682	1	2	5.56588		3.66859		9.57412	
	683	1	2	4.67165		4.30530		9.80776	
	684	1	2	4.94970		3.23954		0.02338	
	685	1	2	5.58105		4.14548		0.22418	
	686	1	2	5.36959		3.04334		0.20919	
	687	1	2	5.89940		3.10829		1.19647	
	688	1	2	6.33035		4.07831		0.83180	
	689	1	2	5.33337		3.62231		1.07209	
	690	1	2	6.06214		4.19169		0.43621	
	691	1	2	5.45372		4.07503		9.50034	
	692	1	2	5.77505		3.01187		9.33880	
	693	1	2	6.38804		2.17268		9.76265	
	694	1	2	6.40689		1.89566		8.67520	
	695	1	2	7.31316		2.40299		9.10057	
	696	1	2	8.30750		2.48244		9.61497	
	697	1	2	7.79576		1.51966		9.34886	
	698	1	2	6.78876		1.68452		8.88151	
	699	1	2	5.99218		2.42678		9.15384	
	700	1	2	6.89404		2.58250		9.80349	
	701	1	2	7.30562		2.13684		0.74776	
	702	1	2	7.02508		1.67163		1.72986	
	703	1	2	6.89634		2.63340		2.29384	
	704	1	2	7.77568		2.19883		1.74835	
	705	1	2	8.55390		2.99311		1.90049	
	706	1	2	8.30646		2.31187		1.04356	
	707	1	2	7.65325		1.54077		1.53180	
	708	1	2	6.76788		2.15685		1.84199	
	709	1	2	7.01615		1.07477		2.00670	
	710	1	2	7.48976		0.44696		1.20595	
	711	1	2	6.56502		0.18038		0.62850	
	712	1	2	6.94855		0.37537		1.66509	
	713	1	2	5.83557		0.23093		1.65717	
	714	1	2	5.38487		9.25904		1.99174	
	715	1	2	5.72701		8.29414		1.53177	
	716	1	2	5.19868		7.57853		2.21617	
	717	1	2	5.82056		7.02958		1.46016	
	718	1	2	6.39380		6.29004		0.84038	
	719	1	2	5.63834		6.38924		0.01631	
	720	1	2	6.16656		7.22096		0.55379	
	721	1	2	5.98250		7.76949		9.59208	
	722	1	2	6.43133		8.79769		9.62369	
	723	1	2	5.85795		8.52199		8.69910	
	724	1	2	5.57323		8.07761		7.70859	
	725	1	2	4.65581		8.42418		8.25436	
	726	1	2	5.53697		8.02862		8.82596	
	727	1	2	6.07312		7.58646		9.70726	
	728	1	2	7.15586		7.87072		9.62653	
	729	1	2	8.11576		7.90977		0.20680	
	730	1	2	7.26696		8.18532		9.52617	
	731	1	2	8.21286		8.53686		9.03492	
	732	1	2	8.30958		7.41966		8.98848	
	733	1	2	9.31768		7.20338		8.54508	
	734	1	2	8.53939		6.95799		9.31559	
	735	1	2	9.45808		6.57132		8.79971	
	736	1	2	0.03824		6.47553		9.75569	
	737	1	2	9.45407		6.06557		0.62190	
	738	1	2	0.07193		5.16085		0.86561	
	739	1	2	0.47046		5.09078		1.91247	
	740	1	2	0.36598		6.20735		1.95718	
	741	1	2	0.37203		6.34282		3.07130	
	742	1	2	0.79568		5.59203		3.78997	
	743	1	2	0.93477		6.22050		4.70939	
	744	1	2	1.62066		7.10194		4.82014	
	745	1	2	1.31045		7.92626		4.12451	
	746	1	2	2.34712		8.35016		4.19718	
	747	1	2	1.24495		8.14163		4.15990	
	748	1	2	1.94391		8.73851		4.80397	
	749	1	2	1.08298		8.75701		4.08419	
	750	1	2	1.58752		9.61727		3.56938	
	751	1	2	2.59175		9.91538		3.97226	
	752	1	2	2.62751		9.97699		5.09233	
	753	1	2	3.45732		9.35773		4.65921	
	754	1	2	3.99325		9.75374		5.56232	
	755	1	2	3.65789		9.39005		4.55489	
	756	1	2	3.79563		9.45460		5.66688	
	757	1	2	2.86722		8.84287		5.51360	
	758	1	2	3.82770		9.35708		5.24393	
	759	1	2	3.73318		8.46576		5.91939	
	760	1	2	4.78764		8.21718		5.62620	
	761	1	2	5.44620		8.16521		6.53353	
	762	1	2	5.83467		8.32135		7.57485	
	763	1	2	6.76071		8.87166		7.25980	
	764	1	2	5.70069		8.50345		7.28003	
	765	1	2	4.93111		7.75012		7.59611	
	766	1	2	4.54255		8.03540		6.58256	
	767	1	2	4.34635		7.02829		7.03740	
	768	1	2	5.26239		6.76742		7.63109	
	769	1	2	5.65707		5.71787		7.58293	
	770	1	2	5.52644		6.72854		7.11269	
	771	1	2	5.09592		7.35259		7.94025	
	772	1	2	5.28262		6.41556		8.52911	
	773	1	2	5.32976		5.37714		8.10588	
	774	1	2	4.54765		5.93810		8.68318	
	775	1	2	4.62052		5.53785		9.72919	
	776	1	2	3.96043		5.07033		0.50723	
	777	1	2	4.40386		6.04988		0.82894	
	778	1	2	5.14391		5.31638		1.24600	
	779	1	2	4.27925		5.77777		0.69907	
	780	1	2	3.99313		4.81217		0.20368	
	781	1	2	3.93492		3.70086		0.05793	
	782	1	2	2.89311		3.52521		0.43662	
	783	1	2	3.77332		3.71304		9.76611	
	784	1	2	3.51102		4.21941		8.79945	
	785	1	2	3.70357		5.03384		9.54730	