#-----------------------------------------------------------------------------------           
# NANOPOLY - POLYMER NANOCOMPOSITE STRUCTURAL DATA FILE                                        
#-----------------------------------------------------------------------------------           
# FILENAME:  test_structure2.in                                                                  
# DATE: 2021-09-22                                                                                
#-----------------------------------------------------------------------------------           
                                                                                               
800 atoms                                                             
799 bonds                                                             
                                                                                               
2 atom types                                      
1 bond types                                            
                                                                                    
0.0000 10.0000 xlo xhi            
0.0000 10.0000 ylo yhi            
0.0000 10.0000 zlo zhi            
                                                                                    
                                                                                    
# Types have been converted numerically as follows:                                 
# 1 a
# 2 b
                                                                                    
Masses                                                                              
                                                                                    
1	1.0
2	0.5

Atoms                                                                               

	1	1	1	5.38355		2.94069		1.90252	
	2	1	1	6.20719		2.81744		2.65490	
	3	1	1	5.79455		3.52654		3.42076	
	4	1	1	5.96323		4.06508		4.39090	
	5	1	1	5.50339		5.02867		4.04497	
	6	1	1	4.74130		4.46971		3.43963	
	7	1	1	4.66555		5.18423		4.30182	
	8	1	1	4.63023		4.46808		5.16526	
	9	1	1	3.93688		3.60691		5.35837	
	10	1	1	4.07609		4.68921		5.62088	
	11	1	1	5.11914		4.42793		5.29927	
	12	1	1	4.26639		3.88637		5.78834	
	13	1	1	5.30362		3.71398		6.18089	
	14	1	1	5.29662		4.68068		5.61073	
	15	1	1	6.38995		4.74292		5.36496	
	16	1	1	6.60687		4.88688		4.27323	
	17	1	1	6.75390		3.96799		3.64579	
	18	1	1	5.91687		3.32677		4.03032	
	19	1	1	6.93092		3.04060		4.41691	
	20	1	1	6.83600		3.86862		5.16858	
	21	1	1	6.61180		2.78197		4.99955	
	22	1	1	6.40736		3.87741		5.13316	
	23	1	1	5.86068		4.85580		5.07346	
	24	1	1	6.20393		5.28318		6.05284	
	25	1	1	6.98958		5.95775		6.48567	
	26	1	1	6.89032		7.03595		6.78109	
	27	1	1	6.20603		6.61389		5.99799	
	28	1	1	5.29408		6.47483		5.35873	
	29	1	1	6.31208		6.12571		5.67721	
	30	1	1	5.72678		6.29473		6.61981	
	31	1	1	6.45438		6.60311		5.82284	
	32	1	1	6.35026		7.29026		4.94158	
	33	1	1	6.06833		6.23263		4.69344	
	34	1	1	6.19871		6.19582		5.80757	
	35	1	1	5.49025		5.93830		4.97605	
	36	1	1	5.08177		6.72859		4.29177	
	37	1	1	5.11519		5.63694		4.55032	
	38	1	1	4.09297		5.19144		4.42290	
	39	1	1	4.01778		6.28558		4.66131	
	40	1	1	4.58244		7.01777		5.29749	
	41	1	1	4.22961		6.08478		5.81196	
	42	1	1	3.38071		5.35145		5.84735	
	43	1	1	3.42929		5.40459		4.72732	
	44	1	1	4.21853		6.00665		4.20363	
	45	1	1	4.93998		6.45494		4.93725	
	46	1	1	3.87016		6.15861		5.10258	
	47	1	1	4.59484		5.31205		4.96901	
	48	1	1	4.17422		5.73885		4.02003	
	49	1	1	4.19436		5.32757		5.06410	
	50	1	1	3.28853		5.72134		4.53113	
	51	1	1	4.40349		5.73063		4.65929	
	52	1	1	4.69744		6.59637		4.00835	
	53	1	1	5.26206		6.71401		4.97116	
	54	1	1	4.51407		6.71426		5.80791	
	55	1	1	5.37679		6.16425		5.34655	
	56	1	1	6.36066		5.77812		4.96902	
	57	1	1	5.92072		6.81063		4.97073	
	58	1	1	6.11635		6.08399		4.13805	
	59	1	1	5.95936		7.16623		3.88557	
	60	1	1	6.36306		8.20620		4.00867	
	61	1	1	6.28542		7.72127		5.01786	
	62	1	1	6.51340		6.62565		4.93252	
	63	1	1	5.99811		7.54531		5.31768	
	64	1	1	6.43603		7.37543		6.33700	
	65	1	1	5.59119		6.65462		6.17470	
	66	1	1	6.40616		5.88541		6.11322	
	67	1	1	7.33941		5.48784		6.59346	
	68	1	1	6.69143		5.18610		5.72817	
	69	1	1	5.69909		5.32788		6.23296	
	70	1	1	5.75836		6.44094		6.36423	
	71	1	1	5.87040		6.01753		5.33088	
	72	1	1	6.11396		6.23520		4.25712	
	73	1	1	5.55096		6.49165		5.19356	
	74	1	1	4.80119		5.83587		4.67641	
	75	1	1	4.77557		6.48401		5.59233	
	76	1	1	4.25491		6.31763		6.57258	
	77	1	1	4.85054		7.26209		6.68600	
	78	1	1	4.66294		7.30711		5.58037	
	79	1	1	5.05174		6.66579		4.74538	
	80	1	1	5.41571		7.22309		5.64904	
	81	1	1	6.14886		6.82110		6.39773	
	82	1	1	7.08694		6.30760		6.05718	
	83	1	1	6.93856		6.26634		7.16890	
	84	1	1	5.88492		5.93408		6.97115	
	85	1	1	5.11682		5.32475		6.42490	
	86	1	1	5.19223		6.34181		6.89346	
	87	1	1	4.63402		6.97556		6.15428	
	88	1	1	3.57965		7.33019		6.30326	
	89	1	1	3.46127		6.22309		6.16197	
	90	1	1	3.25353		5.12810		6.29417	
	91	1	1	3.45391		5.53887		5.26910	
	92	1	1	2.79343		5.93478		6.08560	
	93	1	1	3.61604		6.55107		6.53630	
	94	1	1	4.67227		6.93059		6.53875	
	95	1	1	4.79639		6.30983		5.61198	
	96	1	1	4.53222		5.58349		4.79816	
	97	1	1	5.37949		5.39837		5.51056	
	98	1	1	5.45816		6.51490		5.42800	
	99	1	1	6.32444		6.94727		5.99569	
	100	1	1	6.84785		6.83524		5.00921	
	101	1	1	7.25844		6.57486		3.99765	
	102	1	1	7.19121		7.39236		4.76369	
	103	1	1	6.38069		6.65301		4.52689	
	104	1	1	5.41284		6.35758		5.01231	
	105	1	1	4.42249		6.20914		4.50554	
	106	1	1	5.37678		6.79980		4.49575	
	107	1	1	5.61679		6.12394		5.35903	
	108	1	1	5.92632		6.46974		6.38092	
	109	1	1	5.25285		7.34814		6.56669	
	110	1	1	6.26025		7.83751		6.49379	
	111	1	1	7.31141		8.07860		6.18302	
	112	1	1	7.08223		7.76648		5.12960	
	113	1	1	6.73687		8.81480		5.33306	
	114	1	1	7.64718		8.20823		5.08194	
	115	1	1	6.93698		8.76499		4.41465	
	116	1	1	6.78278		8.12837		5.32601	
	117	1	1	7.06682		8.93218		6.05597	
	118	1	1	6.19746		8.36463		5.62966	
	119	1	1	6.10785		7.33761		5.18599	
	120	1	1	6.38563		6.26775		5.38065	
	121	1	1	5.43338		5.74430		5.09980	
	122	1	1	6.32002		5.09386		5.32440	
	123	1	1	6.01248		6.13166		5.02768	
	124	1	1	5.30852		6.91925		5.40686	
	125	1	1	5.37238		5.80205		5.32073	
	126	1	1	5.46757		5.07504		4.47100	
	127	1	1	5.78239		4.91623		5.53651	
	128	1	1	5.06988		4.06640		5.36397	
	129	1	1	4.63329		4.89812		5.97819	
	130	1	1	3.95707		4.71348		5.10167	
	131	1	1	4.87640		4.16314		5.43574	
	132	1	1	4.68977		3.10102		5.74674	
	133	1	1	5.45987		2.37236		6.11503	
	134	1	1	5.63429		2.87762		5.12815	
	135	1	1	5.15565		2.14661		4.42374	
	136	1	1	5.91341		2.03768		5.24446	
	137	1	1	6.48613		1.74761		4.32387	
	138	1	1	7.28913		1.55049		5.08280	
	139	1	1	6.40367		1.16673		5.65581	
	140	1	1	6.55021		2.24377		5.93540	
	141	1	1	5.85217		2.76969		5.23128	
	142	1	1	6.26916		3.16412		6.19574	
	143	1	1	7.21465		3.56878		6.64513	
	144	1	1	7.53720		3.18815		5.63978	
	145	1	1	7.07471		4.20704		5.72706	
	146	1	1	7.71540		5.12427		5.81570	
	147	1	1	7.71986		5.89861		6.62811	
	148	1	1	6.82750		5.93033		5.94816	
	149	1	1	7.66098		5.32497		5.50263	
	150	1	1	6.85822		4.70273		5.98017	
	151	1	1	6.24971		5.37022		5.31397	
	152	1	1	6.00147		6.15086		6.08119	
	153	1	1	6.04004		5.50042		5.16736	
	154	1	1	5.90436		4.69778		5.94003	
	155	1	1	5.83108		4.39868		4.86077	
	156	1	1	5.08243		3.79321		4.28408	
	157	1	1	5.73757		3.78676		5.19534	
	158	1	1	4.63779		3.85386		4.98171	
	159	1	1	4.67055		4.06007		6.08446	
	160	1	1	5.13802		4.09794		7.10411	
	161	1	1	4.88160		5.10340		7.53184	
	162	1	1	5.55290		6.00102		7.47467	
	163	1	1	6.12349		5.09242		7.14525	
	164	1	1	6.14483		6.21456		7.14602	
	165	1	1	5.25811		5.79270		6.60252	
	166	1	1	5.00644		5.23754		5.66012	
	167	1	1	6.03070		5.58567		5.36120	
	168	1	1	5.05146		6.12373		5.25527	
	169	1	1	5.14834		7.22393		5.45482	
	170	1	1	5.41095		7.45946		4.38936	
	171	1	1	5.59654		6.42043		4.77095	
	172	1	1	4.88922		6.14136		3.94544	
	173	1	1	4.53340		5.07694		3.95121	
	174	1	1	5.29351		5.47427		4.67509	
	175	1	1	4.72548		5.99199		5.49299	
	176	1	1	3.89768		5.65103		4.81613	
	177	1	1	4.94635		5.34071		4.56387	
	178	1	1	4.21073		5.56400		5.38158	
	179	1	1	3.37933		5.86279		6.07378	
	180	1	1	3.97028		6.01141		7.01630	
	181	1	1	3.50333		5.14627		6.47488	
	182	1	1	3.29648		5.01927		5.37910	
	183	1	1	3.38111		6.13523		5.46342	
	184	1	1	3.30056		5.05892		5.15566	
	185	1	1	4.17775		4.39405		5.37505	
	186	1	1	3.74667		4.59121		6.39237	
	187	1	1	4.27503		4.60600		5.40229	
	188	1	1	3.72599		4.90064		4.46881	
	189	1	1	4.08782		5.96028		4.39206	
	190	1	1	3.19424		5.61827		3.80538	
	191	1	1	3.83154		5.05412		3.07379	
	192	1	1	4.07723		6.13440		3.25344	
	193	1	1	4.76371		5.61054		3.97035	
	194	1	1	5.81565		5.56611		3.58163	
	195	1	1	6.36546		5.72457		4.54716	
	196	1	1	6.49622		4.82658		5.20759	
	197	1	1	5.91707		5.68283		5.64471	
	198	1	1	5.59826		4.94495		6.42799	
	199	1	1	6.25154		4.03871		6.32031	
	200	1	1	6.88119		4.03872		7.24938	
	201	1	1	6.81358		2.91871		7.22360	
	202	1	1	5.70845		2.73755		7.29781	
	203	1	1	6.17999		3.19478		8.20788	
	204	1	1	5.33999		2.45773		8.31179	
	205	1	1	6.03911		2.56525		7.44040	
	206	1	1	5.70868		2.71747		6.37866	
	207	1	1	6.47924		3.52788		6.28313	
	208	1	1	7.55504		3.29227		6.06687	
	209	1	1	8.38999		3.65140		6.72530	
	210	1	1	9.05309		4.54390		6.87826	
	211	1	1	8.02158		4.11790		6.75929	
	212	1	1	7.44177		4.16088		7.71930	
	213	1	1	7.52269		3.21385		7.12245	
	214	1	1	6.97683		2.66912		7.93790	
	215	1	1	8.08616		2.61745		7.77552	
	216	1	1	8.55463		2.82754		8.77354	
	217	1	1	7.64492		2.48411		9.33402	
	218	1	1	8.65940		2.65663		9.78202	
	219	1	1	7.96173		1.93139		0.27893	
	220	1	1	7.04789		2.46320		9.90249	
	221	1	1	6.83696		3.41489		9.34621	
	222	1	1	7.55657		2.85307		8.69339	
	223	1	1	8.58740		2.97884		9.11909	
	224	1	1	9.09710		1.98152		9.19120	
	225	1	1	9.03297		1.27775		8.31928	
	226	1	1	9.59152		0.43399		7.83376	
	227	1	1	0.51690		0.33299		8.46076	
	228	1	1	1.12715		0.25000		9.39903	
	229	1	1	0.24399		0.76586		8.93691	
	230	1	1	9.37294		0.14933		9.28449	
	231	1	1	9.67179		9.26529		8.66096	
	232	1	1	9.38426		8.31921		9.19192	
	233	1	1	9.75526		9.11225		9.89412	
	234	1	1	9.65579		9.43524		8.82388	
	235	1	1	8.64335		9.28355		9.28389	
	236	1	1	7.84549		9.60876		0.00313	
	237	1	1	7.62260		8.90312		0.84696	
	238	1	1	8.60751		8.48993		0.50217	
	239	1	1	7.77623		9.23460		0.62079	
	240	1	1	8.65083		8.56282		0.82916	
	241	1	1	7.91010		9.36759		1.08076	
	242	1	1	8.59841		9.58001		0.22009	
	243	1	1	9.58483		0.01689		0.52952	
	244	1	1	0.45327		9.30600		0.53970	
	245	1	1	0.72183		8.87330		9.53955	
	246	1	1	0.49706		7.87219		9.08470	
	247	1	1	0.30738		7.62232		8.00709	
	248	1	1	9.88189		8.14492		8.90458	
	249	1	1	0.71395		7.47542		9.24969	
	250	1	1	0.61026		6.62141		9.97049	
	251	1	1	9.85398		7.26935		0.48803	
	252	1	1	0.13361		7.64555		9.46826	
	253	1	1	9.97033		6.53609		9.51393	
	254	1	1	8.89948		6.31067		9.76315	
	255	1	1	8.59755		6.26176		8.68329	
	256	1	1	8.59271		6.58504		7.60853	
	257	1	1	8.42165		5.66856		6.98368	
	258	1	1	9.49070		5.33001		7.03009	
	259	1	1	8.73252		4.51160		6.90755	
	260	1	1	8.18018		5.48801		6.94194	
	261	1	1	8.82962		5.22341		7.81822	
	262	1	1	9.65695		5.96270		7.98742	
	263	1	1	9.49579		5.21732		7.16395	
	264	1	1	9.45207		5.13592		8.28248	
	265	1	1	0.51510		4.83183		8.47520	
	266	1	1	0.06040		4.22225		9.30061	
	267	1	1	9.96870		3.53460		0.18287	
	268	1	1	9.79323		2.46501		9.89161	
	269	1	1	0.64650		1.87574		9.46226	
	270	1	1	0.57598		1.52822		0.52711	
	271	1	1	0.14339		2.49821		0.16431	
	272	1	1	1.12047		2.88278		0.56062	
	273	1	1	0.63075		2.65788		9.57612	
	274	1	1	9.85778		2.88737		0.35682	
	275	1	1	0.48443		2.39548		9.56626	
	276	1	1	0.83971		1.35088		9.36075	
	277	1	1	1.59224		1.04021		8.58819	
	278	1	1	0.73454		0.95652		7.86917	
	279	1	1	9.97222		0.37813		7.28266	
	280	1	1	9.72134		1.46080		7.43928	
	281	1	1	0.44074		1.98079		8.12608	
	282	1	1	1.34590		1.44145		8.51267	
	283	1	1	1.29480		0.54794		9.18992	
	284	1	1	0.99799		1.45719		9.77712	
	285	1	1	0.56991		0.74981		0.53608	
	286	1	1	0.50826		9.63397		0.63973	
	287	1	1	0.97057		0.59709		0.29578	
	288	1	1	1.74582		1.39045		0.12485	
	289	1	1	1.85963		1.22016		9.02136	
	290	1	1	2.00934		2.33203		8.99033	
	291	1	1	2.11868		1.69001		8.07627	
	292	1	1	3.13014		1.92711		7.65155	
	293	1	1	3.90541		1.92367		8.46309	
	294	1	1	4.29206		2.11200		9.49975	
	295	1	1	3.43451		1.80167		0.15393	
	296	1	1	2.66975		0.98029		0.14336	
	297	1	1	3.42340		1.71799		9.75937	
	298	1	1	2.71315		0.84998		9.71753	
	299	1	1	2.75369		1.01707		0.82662	
	300	1	1	1.77563		0.62427		1.21231	
	301	1	1	2.08191		0.68962		2.29008	
	302	1	1	2.22534		1.77228		2.03139	
	303	1	1	1.27878		1.79531		2.63400	
	304	1	1	0.70105		0.91819		2.23834	
	305	1	1	1.38833		1.70504		1.82827	
	306	1	1	1.90788		0.76118		1.51389	
	307	1	1	1.86874		0.19435		0.54600	
	308	1	1	2.34552		0.66923		9.64776	
	309	1	1	2.40005		9.54850		9.62242	
	310	1	1	2.11249		0.46805		9.04676	
	311	1	1	2.19887		0.33080		7.93619	
	312	1	1	2.54948		9.37207		8.40264	
	313	1	1	2.32573		8.80242		9.34343	
	314	1	1	2.11819		9.40284		0.26867	
	315	1	1	1.13571		9.44698		0.80944	
	316	1	1	0.80905		0.51529		0.91738	
	317	1	1	0.19833		1.43802		1.10510	
	318	1	1	9.74174		2.43509		0.86630	
	319	1	1	8.98384		1.95265		1.53898	
	320	1	1	9.63108		2.80431		1.19926	
	321	1	1	0.60072		3.36940		1.18835	
	322	1	1	0.90217		2.95720		0.18892	
	323	1	1	0.77256		1.85796		0.37472	
	324	1	1	0.03771		2.63651		0.71164	
	325	1	1	9.10488		2.05595		0.48268	
	326	1	1	8.77344		0.98514		0.53883	
	327	1	1	8.69245		0.02961		9.95569	
	328	1	1	8.19534		9.83310		8.96881	
	329	1	1	8.04749		9.02976		8.19912	
	330	1	1	7.48333		8.75737		7.26790	
	331	1	1	8.00940		7.94295		7.83324	
	332	1	1	8.04722		8.74081		7.04480	
	333	1	1	7.15218		8.15147		6.71127	
	334	1	1	6.14454		7.92640		6.27121	
	335	1	1	5.22840		7.40754		5.88247	
	336	1	1	5.76969		6.97395		5.00006	
	337	1	1	6.04631		8.06115		4.96664	
	338	1	1	6.82498		7.34836		5.34772	
	339	1	1	6.07025		6.51931		5.29575	
	340	1	1	6.12790		7.34515		4.53792	
	341	1	1	5.94466		6.83842		5.52245	
	342	1	1	6.49913		6.94127		6.49282	
	343	1	1	5.56653		6.36334		6.25640	
	344	1	1	5.84746		5.60839		5.47487	
	345	1	1	5.00636		6.21908		5.89827	
	346	1	1	5.53445		7.19759		5.74565	
	347	1	1	4.73261		6.44341		5.96451	
	348	1	1	4.33571		5.69658		6.70232	
	349	1	1	3.71519		4.76143		6.69246	
	350	1	1	3.69302		5.02416		5.60153	
	351	1	1	2.76083		5.22662		6.19286	
	352	1	1	3.14781		4.21379		5.90291	
	353	1	1	3.66024		3.42545		5.29007	
	354	1	1	3.02923		3.75889		6.15627	
	355	1	1	3.94236		3.21524		5.79532	
	356	1	1	4.24103		4.05356		6.47917	
	357	1	1	4.45800		5.13422		6.69070	
	358	1	1	4.33192		4.98918		5.58494	
	359	1	1	3.29064		5.18757		5.95377	
	360	1	1	3.77438		4.51364		5.19782	
	361	1	1	2.72134		4.49229		4.81016	
	362	1	1	2.82900		3.79341		3.93860	
	363	1	1	2.98085		2.85365		3.34409	
	364	1	1	3.37460		3.87093		3.60818	
	365	1	1	2.34700		4.23699		3.34419	
	366	1	1	2.68893		4.56368		4.36203	
	367	1	1	3.37775		5.44681		4.43455	
	368	1	1	3.88595		5.37866		3.43618	
	369	1	1	4.98767		5.24220		3.60120	
	370	1	1	4.76486		5.58074		2.55459	
	371	1	1	5.27227		6.56879		2.71567	
	372	1	1	5.72340		5.73643		3.31842	
	373	1	1	5.33754		6.37889		4.15389	
	374	1	1	5.56598		7.02118		5.04547	
	375	1	1	6.44142		7.41940		4.46697	
	376	1	1	7.35936		6.80642		4.67020	
	377	1	1	6.92437		6.84386		5.70414	
	378	1	1	6.75823		6.91809		4.59665	
	379	1	1	7.70409		6.76130		4.01319	
	380	1	1	6.62361		6.49025		4.15009	
	381	1	1	7.19965		6.49764		3.18688	
	382	1	1	6.14164		6.14353		3.30878	
	383	1	1	6.85674		5.28101		3.37456	
	384	1	1	6.01495		5.99902		3.56296	
	385	1	1	5.81413		6.87646		4.23334	
	386	1	1	5.28481		5.94362		4.56391	
	387	1	1	4.78481		5.13955		5.16650	
	388	1	1	3.90493		5.73864		4.81075	
	389	1	1	5.01047		5.66398		4.98923	
	390	1	1	4.71627		4.59890		4.79248	
	391	1	1	4.40994		5.51586		5.36257	
	392	1	1	3.72496		5.04343		6.11574	
	393	1	1	4.55990		4.77645		5.41485	
	394	1	1	4.38545		4.45779		6.47677	
	395	1	1	3.86900		5.33750		6.00875	
	396	1	1	4.27706		4.61291		5.25502	
	397	1	1	4.20578		4.64931		6.37450	
	398	1	1	3.79249		5.12235		5.44441	
	399	1	1	4.39005		5.46325		6.33118	
	400	1	1	5.04813		4.55638		6.39582	
	401	1	2	5.89986		5.11182		6.87087	
	402	1	2	5.39589		4.11124		6.80375	
	403	1	2	5.69559		3.06592		6.52603	
	404	1	2	6.12752		2.11407		6.11729	
	405	1	2	6.99315		1.52636		5.71119	
	406	1	2	7.90614		1.44852		6.35930	
	407	1	2	8.17265		0.55006		5.74173	
	408	1	2	8.48498		1.28951		4.95732	
	409	1	2	8.99229		2.25320		4.68604	
	410	1	2	8.69925		1.18830		4.48663	
	411	1	2	9.71425		0.71620		4.40571	
	412	1	2	9.71633		0.92606		3.30316	
	413	1	2	9.69536		0.02713		2.63150	
	414	1	2	9.82711		9.08818		3.23204	
	415	1	2	9.14682		8.22915		3.47476	
	416	1	2	0.12004		8.12339		4.02366	
	417	1	2	0.71894		9.06278		3.88764	
	418	1	2	0.00958		8.26431		4.23247	
	419	1	2	9.57156		9.29196		4.12413	
	420	1	2	8.97859		8.64351		4.82237	
	421	1	2	9.67668		9.25529		5.45328	
	422	1	2	9.61796		9.49104		6.54901	
	423	1	2	0.14892		8.51641		6.71584	
	424	1	2	9.80110		7.80474		7.51094	
	425	1	2	9.95457		7.11432		8.38238	
	426	1	2	8.95812		6.74208		8.74039	
	427	1	2	9.93989		6.22755		8.56423	
	428	1	2	8.86965		6.56404		8.53244	
	429	1	2	7.98599		6.43358		7.85289	
	430	1	2	7.64335		5.39872		7.58586	
	431	1	2	8.31538		4.74550		6.96835	
	432	1	2	8.72260		4.86852		8.00695	
	433	1	2	8.62448		4.65881		6.90875	
	434	1	2	9.61722		5.11568		7.16445	
	435	1	2	9.47966		6.04978		6.55767	
	436	1	2	9.91861		7.02114		6.20636	
	437	1	2	8.95015		6.67460		6.65540	
	438	1	2	9.50995		6.08491		5.88175	
	439	1	2	9.09624		7.08723		5.59219	
	440	1	2	9.12397		7.31790		6.69022	
	441	1	2	9.13074		6.44162		7.39145	
	442	1	2	9.62902		7.41713		7.63592	
	443	1	2	0.60093		7.88710		7.94278	
	444	1	2	1.46913		8.59572		8.00390	
	445	1	2	1.33181		9.66597		7.69511	
	446	1	2	0.48828		9.78116		6.96379	
	447	1	2	0.95600		0.49964		6.23944	
	448	1	2	0.26914		0.38318		7.11939	
	449	1	2	0.55972		1.24315		7.77943	
	450	1	2	1.25865		1.95834		7.26988	
	451	1	2	1.86416		2.19067		8.18587	
	452	1	2	1.86916		1.64345		7.20599	
	453	1	2	2.50816		0.86147		6.71625	
	454	1	2	2.27034		1.53491		7.58203	
	455	1	2	1.47813		0.86023		7.16149	
	456	1	2	2.00392		1.81166		7.44074	
	457	1	2	2.94489		1.41380		6.97605	
	458	1	2	2.20590		0.58652		6.80530	
	459	1	2	1.15470		0.20062		6.72984	
	460	1	2	1.38523		0.95931		5.93555	
	461	1	2	1.04106		1.48588		6.86502	
	462	1	2	9.98350		1.62700		6.51674	
	463	1	2	9.45014		1.78026		5.54120	
	464	1	2	9.19296		1.04873		4.72979	
	465	1	2	9.48473		9.96625		4.67742	
	466	1	2	8.82407		9.65307		5.52894	
	467	1	2	9.16595		0.00097		4.51813	
	468	1	2	8.31462		9.51363		5.06346	
	469	1	2	7.76465		9.62324		4.09127	
	470	1	2	7.83117		0.04022		3.05138	
	471	1	2	7.75873		8.98991		3.44029	
	472	1	2	8.22810		7.97450		3.53134	
	473	1	2	8.67112		7.07159		3.03321	
	474	1	2	9.68704		7.09146		2.55662	
	475	1	2	9.59938		8.19924		2.71400	
	476	1	2	9.53178		7.13846		2.35371	
	477	1	2	0.42045		6.51249		2.07427	
	478	1	2	9.63938		5.70954		2.00453	
	479	1	2	9.53801		5.13343		2.96237	
	480	1	2	0.45464		5.01507		2.32564	
	481	1	2	9.91901		5.73629		1.65288	
	482	1	2	1.04014		5.77904		1.62297	
	483	1	2	0.70902		5.55496		0.57425	
	484	1	2	0.00935		4.75813		0.94191	
	485	1	2	0.18185		5.29262		1.91361	
	486	1	2	0.45024		6.36971		2.07945	
	487	1	2	9.89793		5.39371		2.03441	
	488	1	2	8.88907		5.74586		1.69113	
	489	1	2	8.71006		4.71997		2.10963	
	490	1	2	8.42594		5.79220		2.28066	
	491	1	2	7.63736		5.69558		3.07340	
	492	1	2	7.00365		6.51799		2.64714	
	493	1	2	7.90531		7.14703		2.87287	
	494	1	2	7.67808		8.17929		2.49544	
	495	1	2	8.34998		9.05024		2.27259	
	496	1	2	7.63471		8.19072		2.36886	
	497	1	2	8.41100		7.96880		3.14847	
	498	1	2	7.37181		7.54518		3.13131	
	499	1	2	6.44852		7.41824		2.50596	
	500	1	2	6.31073		8.49789		2.77985	
	501	1	2	6.93016		9.40101		3.02548	
	502	1	2	6.32682		8.46478		2.88726	
	503	1	2	5.62970		7.88552		3.54918	
	504	1	2	6.28742		8.78081		3.38945	
	505	1	2	5.73299		8.97026		4.34672	
	506	1	2	4.91090		9.16380		3.60755	
	507	1	2	3.90008		9.02109		4.07394	
	508	1	2	3.65723		0.08735		4.32647	
	509	1	2	3.47979		1.00948		3.71178	
	510	1	2	2.91302		1.47228		2.86076	
	511	1	2	2.41748		2.39282		3.26903	
	512	1	2	2.78732		1.34402		3.42026	
	513	1	2	2.00055		0.66515		2.99624	
	514	1	2	2.52054		0.79980		3.98170	
	515	1	2	2.12258		1.76115		3.56088	
	516	1	2	1.94920		2.14112		4.60261	
	517	1	2	1.75203		3.24564		4.57439	
	518	1	2	1.63965		4.34033		4.79499	
	519	1	2	1.09980		3.87000		3.93070	
	520	1	2	0.09813		3.36396		3.94569	
	521	1	2	9.54379		3.86722		4.78180	
	522	1	2	9.94457		4.90784		4.65478	
	523	1	2	9.21021		5.73286		4.45551	
	524	1	2	8.56073		5.66329		5.36819	
	525	1	2	9.26506		4.81877		5.59259	
	526	1	2	9.64489		5.72831		6.12936	
	527	1	2	0.69695		5.92222		6.46877	
	528	1	2	0.23288		4.91864		6.66136	
	529	1	2	9.97425		5.88952		6.16122	
	530	1	2	9.32401		6.21303		7.01690	
	531	1	2	9.48117		5.12479		7.24203	
	532	1	2	8.68452		4.38840		6.95439	
	533	1	2	8.36599		3.67658		7.76154	
	534	1	2	9.03344		2.97802		7.19044	
	535	1	2	8.67805		2.43350		8.10523	
	536	1	2	8.47562		2.08239		7.05862	
	537	1	2	9.40373		1.57790		6.67948	
	538	1	2	8.37962		1.12130		6.63083	
	539	1	2	8.24602		1.46555		5.57098	
	540	1	2	8.79386		1.92827		6.43435	
	541	1	2	9.05369		3.01234		6.30428	
	542	1	2	9.07860		4.00536		5.78185	
	543	1	2	8.42930		4.85761		6.11609	
	544	1	2	7.80462		5.76503		5.90158	
	545	1	2	8.49602		5.44222		5.07854	
	546	1	2	8.83725		4.46987		5.52321	
	547	1	2	7.75312		4.42297		5.23669	
	548	1	2	7.74154		3.53005		4.55683	
	549	1	2	8.03736		4.57829		4.28603	
	550	1	2	7.08134		4.25590		4.77771	
	551	1	2	6.25980		3.49135		4.79104	
	552	1	2	5.68727		2.63705		4.34157	
	553	1	2	4.87425		1.95971		3.96759	
	554	1	2	4.50140		0.91541		4.14095	
	555	1	2	4.54497		1.61419		3.26377	
	556	1	2	4.85639		2.62684		3.63417	
	557	1	2	5.42832		3.43447		4.16358	
	558	1	2	6.42383		2.93268		4.29323	
	559	1	2	5.92347		2.04944		3.81450	
	560	1	2	6.70286		1.72553		3.07471	
	561	1	2	6.94899		1.46688		2.01068	
	562	1	2	7.46631		0.82087		2.76878	
	563	1	2	8.51714		0.94274		3.14367	
	564	1	2	8.33342		0.10702		3.86993	
	565	1	2	8.94047		0.99770		3.55717	
	566	1	2	9.83823		1.00807		4.23065	
	567	1	2	0.94414		0.81739		4.24583	
	568	1	2	1.05027		0.29198		3.25976	
	569	1	2	0.93264		9.38001		3.90328	
	570	1	2	1.55718		0.12979		3.34882	
	571	1	2	2.66238		0.05451		3.16851	
	572	1	2	2.67869		8.94711		2.98670	
	573	1	2	3.76035		8.69889		3.15417	
	574	1	2	3.16694		9.22728		2.36151	
	575	1	2	3.61087		8.89921		3.33872	
	576	1	2	3.55620		7.81359		3.61818	
	577	1	2	4.06741		8.64899		3.07007	
	578	1	2	5.13375		8.94863		2.88900	
	579	1	2	4.49479		8.38982		2.15476	
	580	1	2	5.03525		7.43164		1.93241	
	581	1	2	4.85417		8.53541		1.83994	
	582	1	2	5.51058		8.02309		2.59247	
	583	1	2	4.77139		7.79355		1.77972	
	584	1	2	4.00046		8.56437		2.04646	
	585	1	2	4.06990		9.66873		2.23410	
	586	1	2	3.65370		9.28565		1.26473	
	587	1	2	3.24804		9.24915		2.31056	
	588	1	2	3.46742		8.35901		2.95799	
	589	1	2	2.42298		7.94846		2.94205	
	590	1	2	1.66633		7.21965		3.33697	
	591	1	2	0.79920		7.75028		3.81254	
	592	1	2	0.52254		6.73042		3.43440	
	593	1	2	9.92740		7.52878		3.95216	
	594	1	2	9.94802		8.09273		4.92231	
	595	1	2	0.51194		9.02181		5.20240	
	596	1	2	0.90751		9.38587		4.21720	
	597	1	2	0.91185		9.87688		5.22643	
	598	1	2	0.24236		0.20431		4.38726	
	599	1	2	0.56810		9.20610		4.78363	
	600	1	2	0.76170		8.43777		3.98875	
	601	1	2	0.51663		8.45822		5.08382	
	602	1	2	9.49366		8.04917		4.86966	
	603	1	2	8.54254		8.40734		4.39351	
	604	1	2	9.16763		7.55478		4.77039	
	605	1	2	9.67061		8.17728		5.55725	
	606	1	2	9.44506		7.09524		5.75207	
	607	1	2	8.93458		6.35528		5.08012	
	608	1	2	8.02703		6.37095		5.74024	
	609	1	2	7.61245		6.46636		6.77883	
	610	1	2	8.15907		6.04306		7.66295	
	611	1	2	8.82913		6.89310		7.95977	
	612	1	2	7.92977		7.54947		8.10112	
	613	1	2	7.16249		8.18557		8.61717	
	614	1	2	6.35214		8.27113		7.84537	
	615	1	2	7.04242		7.72896		7.14594	
	616	1	2	7.29767		8.78564		7.42508	
	617	1	2	6.18919		8.96025		7.40446	
	618	1	2	5.86286		8.41238		8.32803	
	619	1	2	4.95042		9.00697		8.59928	
	620	1	2	5.73143		8.35307		8.12801	
	621	1	2	4.98652		8.01139		7.36119	
	622	1	2	4.73086		7.11691		7.98903	
	623	1	2	4.99463		8.03007		7.39220	
	624	1	2	4.01115		8.47634		7.69759	
	625	1	2	4.44581		7.44205		7.66649	
	626	1	2	5.27431		7.94632		8.23126	
	627	1	2	4.59104		7.07524		8.04681	
	628	1	2	4.82428		8.11755		7.70209	
	629	1	2	4.08206		8.47889		8.46248	
	630	1	2	4.27609		9.57925		8.35656	
	631	1	2	3.58879		8.69473		8.42644	
	632	1	2	4.52901		8.66768		9.03873	
	633	1	2	4.10648		9.11351		8.09940	
	634	1	2	3.87997		8.21632		7.46427	
	635	1	2	4.48928		7.60242		6.74908	
	636	1	2	5.38450		7.81277		7.39249	
	637	1	2	5.66795		7.01192		8.12594	
	638	1	2	5.14040		6.25286		8.76247	
	639	1	2	5.95796		6.99649		8.95808	
	640	1	2	5.09619		6.34773		9.26809	
	641	1	2	5.88958		5.63935		8.90978	
	642	1	2	6.27145		4.64332		8.56085	
	643	1	2	6.63091		3.85672		9.27617	
	644	1	2	7.24477		3.36745		8.47403	
	645	1	2	6.25160		3.38880		7.95171	
	646	1	2	5.54790		3.85570		8.69095	
	647	1	2	5.20284		3.06323		7.97501	
	648	1	2	6.07158		2.77975		8.62661	
	649	1	2	5.79227		2.01124		9.39540	
	650	1	2	5.54739		1.44482		8.45792	
	651	1	2	6.14365		2.24835		8.96633	
	652	1	2	5.62245		3.08662		9.50046	
	653	1	2	5.62116		3.82549		0.34528	
	654	1	2	5.87482		4.66023		9.63924	
	655	1	2	6.71637		4.08488		0.10871	
	656	1	2	7.27278		5.01640		0.39559	
	657	1	2	7.89741		5.80320		9.89515	
	658	1	2	8.53364		6.60797		0.35036	
	659	1	2	9.06315		7.05637		9.46820	
	660	1	2	8.88227		5.94897		9.44365	
	661	1	2	8.62753		6.79199		0.13941	
	662	1	2	8.39445		7.67261		0.79502	
	663	1	2	8.84343		6.82563		0.21133	
	664	1	2	9.77118		6.20378		0.32193	
	665	1	2	9.36127		5.25611		0.76186	
	666	1	2	9.99811		4.87027		9.92209	
	667	1	2	9.76526		5.81586		9.36416	
	668	1	2	8.69868		5.60833		9.64520	
	669	1	2	8.55255		5.75681		8.54237	
	670	1	2	8.78850		5.58447		7.45873	
	671	1	2	9.30651		5.58997		6.46310	
	672	1	2	9.74004		5.68950		5.43266	
	673	1	2	0.85557		5.73910		5.31956	
	674	1	2	0.62372		5.97720		6.39157	
	675	1	2	9.80680		5.46987		5.81286	
	676	1	2	8.93485		4.97653		5.30692	
	677	1	2	8.79850		6.07511		5.12202	
	678	1	2	8.48950		5.40948		5.97120	
	679	1	2	7.87653		4.74558		6.63690	
	680	1	2	7.20671		5.64500		6.59180	
	681	1	2	6.75684		6.31886		7.36844	
	682	1	2	6.33484		7.33441		7.59255	
	683	1	2	7.42231		7.13690		7.39751	
	684	1	2	7.47910		8.07257		8.01472	
	685	1	2	6.73761		7.41495		8.54139	
	686	1	2	7.71250		6.92605		8.27643	
	687	1	2	6.77447		7.43393		8.62542	
	688	1	2	7.47941		7.10397		7.81682	
	689	1	2	6.80472		7.56138		7.04532	
	690	1	2	6.63760		7.79762		8.12971	
	691	1	2	5.87100		7.04505		7.80475	
	692	1	2	6.63284		6.73184		8.56708	
	693	1	2	7.75464		6.70610		8.54345	
	694	1	2	8.16837		7.43713		7.79910	
	695	1	2	9.06740		6.95041		7.33597	
	696	1	2	9.29962		8.04264		7.44886	
	697	1	2	9.91486		7.71693		8.32923	
	698	1	2	8.83060		7.89278		8.55969	
	699	1	2	9.29774		8.18964		9.53606	
	700	1	2	9.11726		8.55069		0.58330	
	701	1	2	9.10410		9.43000		1.28066	
	702	1	2	9.50188		0.14891		0.51608	
	703	1	2	9.75224		1.23251		0.66700	
	704	1	2	8.85343		0.64926		1.00109	
	705	1	2	7.85674		1.13132		1.18513	
	706	1	2	8.86506		0.64929		1.28807	
	707	1	2	8.09614		1.40399		1.60248	
	708	1	2	7.98742		2.45574		1.97883	
	709	1	2	8.83618		1.72440		1.91268	
	710	1	2	9.35316		2.52111		2.51071	
	711	1	2	8.57823		1.82696		2.93176	
	712	1	2	7.56428		1.93128		2.46200	
	713	1	2	7.14593		0.98313		2.89287	
	714	1	2	6.86575		0.81730		1.81879	
	715	1	2	6.95256		1.15717		0.75267	
	716	1	2	6.35218		1.75523		1.48855	
	717	1	2	6.39278		0.77989		2.04237	
	718	1	2	6.07459		0.03029		1.27004	
	719	1	2	6.22518		0.15462		2.37526	
	720	1	2	6.82029		9.57549		1.62021	
	721	1	2	7.46224		8.68980		1.36901	
	722	1	2	6.85701		7.76178		1.54820	
	723	1	2	7.25579		7.42618		2.54218	
	724	1	2	6.22105		7.15087		2.20579	
	725	1	2	6.50856		6.46085		1.36861	
	726	1	2	6.74478		7.28477		0.64404	
	727	1	2	7.34810		7.54495		9.73412	
	728	1	2	8.14789		7.26036		8.99995	
	729	1	2	8.69703		6.32166		9.27733	
	730	1	2	7.86220		7.04715		9.08661	
	731	1	2	6.89166		7.18513		9.63311	
	732	1	2	6.22328		7.97447		0.06884	
	733	1	2	7.12458		7.42659		9.68528	
	734	1	2	7.56574		6.48646		0.11094	
	735	1	2	8.64564		6.24992		0.30461	
	736	1	2	7.90953		5.43761		0.54535	
	737	1	2	7.23231		4.68470		0.06148	
	738	1	2	6.90090		3.68897		0.45940	
	739	1	2	7.79580		3.01219		0.43150	
	740	1	2	7.98665		2.07382		9.84611	
	741	1	2	7.00852		1.62520		0.16492	
	742	1	2	7.68533		2.51517		0.06732	
	743	1	2	7.15707		2.40813		9.08287	
	744	1	2	6.49510		1.88613		8.34195	
	745	1	2	6.43329		1.76801		9.45634	
	746	1	2	5.93364		2.03553		0.42506	
	747	1	2	6.32956		1.11357		9.92220	
	748	1	2	6.06825		0.11970		9.47098	
	749	1	2	6.03225		0.77827		8.56288	
	750	1	2	7.00383		1.31932		8.41146	
	751	1	2	6.08580		1.87172		8.07722	
	752	1	2	6.07168		2.03419		9.18765	
	753	1	2	5.86317		2.78619		9.99428	
	754	1	2	6.81129		3.35529		0.18621	
	755	1	2	6.07946		4.16104		9.91264	
	756	1	2	6.15799		5.19237		0.34835	
	757	1	2	6.91855		5.28876		1.16805	
	758	1	2	5.88947		5.51013		1.55744	
	759	1	2	5.75700		6.42554		0.92174	
	760	1	2	5.06017		6.44658		0.04218	
	761	1	2	4.06951		6.95616		9.90586	
	762	1	2	3.02543		6.60792		9.68613	
	763	1	2	2.01009		6.13409		9.75108	
	764	1	2	1.18392		6.18271		8.99297	
	765	1	2	1.31625		7.12667		9.58548	
	766	1	2	2.17401		7.83630		9.72797	
	767	1	2	2.21640		8.39686		0.69937	
	768	1	2	1.74832		8.38620		1.71939	
	769	1	2	1.58013		8.10347		2.79244	
	770	1	2	1.24387		8.37514		3.82818	
	771	1	2	1.39602		9.46653		3.61519	
	772	1	2	1.61830		0.02099		4.56536	
	773	1	2	1.52698		8.93486		4.29770	
	774	1	2	1.83659		9.97797		4.02253	
	775	1	2	0.74674		0.10165		3.78466	
	776	1	2	0.18348		0.46130		4.68635	
	777	1	2	9.43225		9.62884		4.63835	
	778	1	2	8.47200		9.36419		5.15558	
	779	1	2	8.52347		8.76949		4.20514	
	780	1	2	9.02325		7.78222		4.39267	
	781	1	2	8.78151		8.32965		5.34216	
	782	1	2	8.02127		8.58484		4.55695	
	783	1	2	7.58276		8.39296		5.57210	
	784	1	2	8.09829		7.87369		4.72108	
	785	1	2	7.63450		7.20181		3.95094	