#-----------------------------------------------------------------------------------           
# NANOPOLY - POLYMER NANOCOMPOSITE STRUCTURAL DATA FILE                                        
#-----------------------------------------------------------------------------------           
# FILENAME:  test_structure2.in                                                                  
# DATE: 2021-09-21                                                                                
#-----------------------------------------------------------------------------------           
                                                                                               
16000 atoms                                                             
15980 bonds                                                             
                                                                                               
2 atom types                                      
1 bond types                                            
                                                                                    
0.0000 10.0000 xlo xhi            
0.0000 10.0000 ylo yhi            
0.0000 10.0000 zlo zhi            
                                                                                    
                                                                                    
# Types have been converted numerically as follows:                                 
# 1 a
# 2 b
                                                                                    
Masses                                                                              
                                                                                    
1	1.0
2	0.5

Atoms                                                                               

	1	1	1	3.83859		1.21181		2.87793	
	2	1	1	4.16545		2.28206		2.79203	
	3	1	1	4.70792		3.23631		3.02608	
	4	1	1	5.02315		3.14636		4.09948	
	5	1	1	4.10327		3.52208		4.62129	
	6	1	1	3.59400		4.31226		4.00817	
	7	1	1	3.68241		3.67227		4.92591	
	8	1	1	4.72412		3.28781		5.08927	
	9	1	1	4.78612		4.39349		5.27166	
	10	1	1	5.49351		3.72602		4.71155	
	11	1	1	4.67446		3.68913		5.47800	
	12	1	1	4.29458		2.73107		5.03363	
	13	1	1	4.99968		3.53277		4.68756	
	14	1	1	5.88477		2.84650		4.76038	
	15	1	1	5.01509		3.47709		4.43532	
	16	1	1	4.65068		2.47052		4.09819	
	17	1	1	5.14732		3.16924		4.82260	
	18	1	1	4.72694		3.58480		5.77667	
	19	1	1	4.15855		3.76878		6.72679	
	20	1	1	5.26750		3.75764		6.55427	
	21	1	1	5.75691		4.16968		5.63213	
	22	1	1	5.71726		3.38166		6.43032	
	23	1	1	5.31720		4.01540		7.26577	
	24	1	1	6.30065		4.34592		6.83769	
	25	1	1	7.03536		3.69733		6.29073	
	26	1	1	5.91398		3.73697		6.31471	
	27	1	1	6.27027		2.85302		6.90744	
	28	1	1	5.85851		3.22495		5.93186	
	29	1	1	5.17438		3.36263		6.81086	
	30	1	1	5.55186		4.39822		7.02231	
	31	1	1	5.22809		3.82527		7.93147	
	32	1	1	4.88903		4.06959		6.88984	
	33	1	1	5.60407		3.73331		6.09279	
	34	1	1	6.67621		3.99011		5.88252	
	35	1	1	6.53706		5.09845		5.99150	
	36	1	1	6.62714		5.87396		5.18520	
	37	1	1	6.34582		6.72527		4.51009	
	38	1	1	6.62987		5.63967		4.48931	
	39	1	1	6.03059		5.07634		5.25298	
	40	1	1	5.44086		4.97964		4.30297	
	41	1	1	5.25103		4.35436		3.39048	
	42	1	1	5.75613		5.33817		3.58184	
	43	1	1	5.43804		6.24443		4.16250	
	44	1	1	5.21420		5.22383		4.57227	
	45	1	1	5.80147		4.85233		3.69094	
	46	1	1	6.72358		4.22663		3.55725	
	47	1	1	6.68570		5.06276		4.30498	
	48	1	1	5.61363		5.22845		4.01714	
	49	1	1	6.48547		4.54752		3.82774	
	50	1	1	5.70191		3.85192		4.23001	
	51	1	1	6.31369		3.68482		5.15600	
	52	1	1	5.24267		3.58929		5.47762	
	53	1	1	5.06210		3.13945		4.46535	
	54	1	1	5.27393		2.57561		5.41238	
	55	1	1	5.83408		3.47211		5.78943	
	56	1	1	6.03255		4.56496		5.62840	
	57	1	1	6.85339		4.64850		4.86755	
	58	1	1	6.32685		5.63918		4.89873	
	59	1	1	5.53861		6.43690		4.85455	
	60	1	1	6.42129		5.76823		5.03732	
	61	1	1	5.86554		5.28693		5.88534	
	62	1	1	6.07887		6.38802		5.84364	
	63	1	1	5.82032		7.42686		5.50659	
	64	1	1	6.68101		6.85433		5.06948	
	65	1	1	6.00929		6.27396		4.38273	
	66	1	1	5.07568		5.75749		4.73098	
	67	1	1	4.41857		6.66534		4.79153	
	68	1	1	3.87974		7.02250		3.87406	
	69	1	1	4.27337		7.69541		4.68146	
	70	1	1	4.43795		7.30981		3.64036	
	71	1	1	5.12366		6.48726		3.97632	
	72	1	1	4.13469		5.96253		4.05542	
	73	1	1	4.36422		5.33848		4.95959	
	74	1	1	3.42795		5.94094		5.10133	
	75	1	1	4.54889		5.99476		5.11703	
	76	1	1	3.50517		5.68004		5.38393	
	77	1	1	3.04141		6.69944		5.45751	
	78	1	1	3.45771		5.78783		5.96280	
	79	1	1	4.30605		5.12176		6.27315	
	80	1	1	4.59775		4.03910		6.22415	
	81	1	1	5.06116		4.46313		5.29404	
	82	1	1	4.03196		4.84641		5.52534	
	83	1	1	4.85394		4.09852		5.68241	
	84	1	1	4.09258		4.91633		5.57668	
	85	1	1	4.69770		4.00196		5.33710	
	86	1	1	5.80742		4.15293		5.26376	
	87	1	1	5.74952		5.08810		4.64590	
	88	1	1	5.45508		4.05346		4.96601	
	89	1	1	5.05338		4.78236		5.71900	
	90	1	1	5.68377		3.89785		5.43632	
	91	1	1	5.51713		4.82438		6.04741	
	92	1	1	4.46954		4.81747		6.45008	
	93	1	1	4.88375		4.54331		7.45651	
	94	1	1	4.13440		5.24280		7.91350	
	95	1	1	3.80879		6.06347		8.60641	
	96	1	1	3.57490		7.11816		8.30215	
	97	1	1	3.27062		7.59409		7.33233	
	98	1	1	2.85106		6.55334		7.31073	
	99	1	1	3.29318		5.52178		7.30237	
	100	1	1	3.03686		4.42912		7.30756	
	101	1	1	3.72905		4.54777		8.18302	
	102	1	1	3.32316		5.55923		7.91500	
	103	1	1	3.83901		4.87662		8.64135	
	104	1	1	3.84906		3.96352		7.98882	
	105	1	1	3.91730		3.98594		6.86878	
	106	1	1	4.56968		4.77826		7.32297	
	107	1	1	3.59635		4.78274		6.76416	
	108	1	1	4.26599		4.06568		6.21912	
	109	1	1	3.87695		4.96613		5.67370	
	110	1	1	3.30741		5.13939		4.72225	
	111	1	1	3.21059		4.47022		3.82644	
	112	1	1	3.77612		3.90816		3.03656	
	113	1	1	3.61729		4.15839		1.95406	
	114	1	1	4.68634		4.09529		2.28992	
	115	1	1	5.54278		4.64199		2.76665	
	116	1	1	4.66757		4.36148		2.12247	
	117	1	1	5.03733		3.56492		2.82134	
	118	1	1	5.89407		3.55832		3.54633	
	119	1	1	5.50482		3.46934		2.49741	
	120	1	1	5.08616		3.34426		3.53120	
	121	1	1	4.85427		3.63950		2.47351	
	122	1	1	4.65261		4.53682		3.11679	
	123	1	1	5.76093		4.71365		3.11876	
	124	1	1	5.18767		4.66338		4.08234	
	125	1	1	5.59072		4.23347		5.03753	
	126	1	1	5.66556		5.23879		4.54420	
	127	1	1	4.60287		5.58887		4.45600	
	128	1	1	4.31390		6.30703		5.26865	
	129	1	1	3.83625		5.90455		4.33618	
	130	1	1	4.08566		4.81350		4.25221	
	131	1	1	5.14104		4.61644		3.92512	
	132	1	1	4.93815		5.26449		4.81872	
	133	1	1	4.45935		6.23909		5.10255	
	134	1	1	4.34961		6.16311		6.21692	
	135	1	1	3.99714		5.66663		7.15975	
	136	1	1	4.73985		5.25054		6.42838	
	137	1	1	5.78695		5.49927		6.11003	
	138	1	1	5.88689		5.26674		7.20346	
	139	1	1	5.23656		6.17067		7.06336	
	140	1	1	5.63350		6.71846		6.16780	
	141	1	1	4.58567		6.33615		6.04314	
	142	1	1	3.61407		5.77994		5.96396	
	143	1	1	4.65693		6.18769		5.88757	
	144	1	1	5.27717		6.21673		6.82251	
	145	1	1	5.06181		6.10886		7.91869	
	146	1	1	4.31747		6.44729		7.14988	
	147	1	1	3.28674		6.09825		6.87527	
	148	1	1	3.10225		5.12401		7.40107	
	149	1	1	3.26824		6.19776		7.68244	
	150	1	1	4.17254		6.60592		7.15776	
	151	1	1	4.79066		6.08740		6.37757	
	152	1	1	3.86943		5.91975		5.75881	
	153	1	1	4.45935		6.73318		5.25884	
	154	1	1	3.56586		7.41193		5.28396	
	155	1	1	4.52963		7.43666		5.85858	
	156	1	1	4.14087		7.14133		4.84799	
	157	1	1	3.68857		6.22851		4.37700	
	158	1	1	2.82615		5.54754		4.14863	
	159	1	1	3.81203		5.74704		4.64651	
	160	1	1	4.11491		5.98939		3.59334	
	161	1	1	3.13582		5.69797		4.05823	
	162	1	1	3.15541		4.70807		3.52968	
	163	1	1	4.26541		4.87407		3.53214	
	164	1	1	5.14359		4.17600		3.56593	
	165	1	1	4.29147		4.90599		3.59158	
	166	1	1	3.48331		5.20350		4.31131	
	167	1	1	3.07154		5.86108		5.12228	
	168	1	1	3.67079		5.03958		5.59734	
	169	1	1	4.22736		5.60874		4.80618	
	170	1	1	3.92672		4.60842		4.39556	
	171	1	1	3.57882		4.62131		3.32858	
	172	1	1	3.87890		5.37492		2.55291	
	173	1	1	3.34982		6.36446		2.57606	
	174	1	1	2.90746		6.68035		3.55799	
	175	1	1	1.87829		6.36728		3.87804	
	176	1	1	2.89422		5.89042		3.88946	
	177	1	1	2.30408		4.99325		3.56316	
	178	1	1	2.40481		5.58735		2.61630	
	179	1	1	2.50795		5.07280		3.60839	
	180	1	1	1.90764		5.03773		2.66074	
	181	1	1	2.73609		4.55109		3.24082	
	182	1	1	2.14620		5.42028		3.63601	
	183	1	1	1.18632		6.00081		3.67152	
	184	1	1	1.95871		6.74130		4.01024	
	185	1	1	1.27055		5.85518		4.03964	
	186	1	1	2.39190		5.83644		3.99645	
	187	1	1	3.36671		5.31093		4.17876	
	188	1	1	3.96837		5.86754		3.41206	
	189	1	1	4.91677		5.26861		3.45028	
	190	1	1	5.61522		5.36304		4.32373	
	191	1	1	5.72158		6.17355		3.55470	
	192	1	1	4.64431		6.46779		3.66679	
	193	1	1	4.38705		5.39420		3.86894	
	194	1	1	4.49482		4.68597		3.00498	
	195	1	1	4.74058		3.64616		3.34856	
	196	1	1	4.48720		3.67248		4.44161	
	197	1	1	5.28055		3.62207		5.23388	
	198	1	1	6.20988		4.24534		5.14703	
	199	1	1	6.29412		3.13348		5.01926	
	200	1	1	6.64002		3.68312		5.93463	
	201	1	1	6.55354		2.93650		6.76814	
	202	1	1	5.95717		3.70361		6.20641	
	203	1	1	5.89212		2.62090		5.91805	
	204	1	1	5.76134		3.13749		6.90581	
	205	1	1	5.33519		4.12660		7.22157	
	206	1	1	4.23419		4.19561		7.42818	
	207	1	1	5.22910		4.66863		7.21359	
	208	1	1	5.13333		4.57310		6.09943	
	209	1	1	5.55523		5.42738		6.69261	
	210	1	1	6.51335		5.35479		6.11262	
	211	1	1	6.52342		4.43274		6.75243	
	212	1	1	6.30068		5.45958		6.35794	
	213	1	1	6.09779		4.35807		6.28617	
	214	1	1	5.46017		3.65394		6.88391	
	215	1	1	5.71114		3.27985		5.85595	
	216	1	1	6.20632		2.99716		4.88924	
	217	1	1	5.73574		3.95310		4.53655	
	218	1	1	4.95923		3.83779		3.73444	
	219	1	1	5.07180		4.86302		4.17702	
	220	1	1	3.98902		5.13943		4.07290	
	221	1	1	4.02392		5.93013		4.86865	
	222	1	1	2.96861		5.82542		4.50123	
	223	1	1	1.86832		5.95359		4.68174	
	224	1	1	0.82715		6.10707		5.07168	
	225	1	1	1.77355		6.66723		4.84766	
	226	1	1	2.67911		6.15195		4.43041	
	227	1	1	3.61285		6.26489		5.04280	
	228	1	1	2.81299		5.58500		5.43982	
	229	1	1	2.24165		4.92559		6.14579	
	230	1	1	1.49048		5.30856		5.40504	
	231	1	1	2.25135		5.48918		4.59999	
	232	1	1	2.72699		4.47474		4.53426	
	233	1	1	3.40505		3.58193		4.58691	
	234	1	1	3.08252		4.57580		4.17723	
	235	1	1	3.03051		4.59540		3.05627	
	236	1	1	3.57817		3.74367		3.54028	
	237	1	1	4.55160		3.56199		4.06855	
	238	1	1	4.16006		4.58440		4.31559	
	239	1	1	3.04524		4.58662		4.44530	
	240	1	1	3.20284		5.55096		4.99745	
	241	1	1	2.44171		5.69984		5.80872	
	242	1	1	3.28057		5.43469		6.50561	
	243	1	1	2.48035		5.24967		7.27051	
	244	1	1	3.18124		6.04153		7.64647	
	245	1	1	3.49542		4.99902		7.37426	
	246	1	1	4.53628		4.60572		7.52112	
	247	1	1	5.65359		4.65665		7.42793	
	248	1	1	5.70503		4.08715		6.46218	
	249	1	1	4.82778		3.82308		7.11053	
	250	1	1	4.09518		4.27327		7.83183	
	251	1	1	5.01598		3.91215		7.30138	
	252	1	1	4.69072		2.84445		7.41909	
	253	1	1	5.47646		2.23673		7.94153	
	254	1	1	5.82814		1.17346		8.01515	
	255	1	1	6.32060		1.57134		7.08843	
	256	1	1	6.64927		0.59349		7.53049	
	257	1	1	6.78439		0.72808		8.63651	
	258	1	1	7.59731		1.17894		9.26542	
	259	1	1	8.49616		0.50689		9.27373	
	260	1	1	9.20575		1.01847		9.97688	
	261	1	1	8.13506		1.13748		0.29171	
	262	1	1	7.81915		0.13414		0.68306	
	263	1	1	7.63060		9.72618		1.71149	
	264	1	1	8.45687		0.46605		1.53968	
	265	1	1	8.19461		0.30932		0.45972	
	266	1	1	8.39431		9.20492		0.45126	
	267	1	1	8.68902		9.44097		9.39434	
	268	1	1	8.50656		9.42077		8.28711	
	269	1	1	9.38923		9.04159		8.86743	
	270	1	1	9.77315		8.00331		8.68242	
	271	1	1	9.36975		8.48267		9.61361	
	272	1	1	9.81865		9.18793		0.36245	
	273	1	1	0.56438		0.02278		0.28152	
	274	1	1	0.70024		9.50170		9.29681	
	275	1	1	1.25924		8.69005		8.75978	
	276	1	1	2.17307		9.33997		8.71313	
	277	1	1	1.45671		9.25915		9.57333	
	278	1	1	1.00315		0.11111		0.14613	
	279	1	1	1.99139		9.72919		9.77577	
	280	1	1	1.38437		8.82238		9.51330	
	281	1	1	2.14677		8.82658		0.33694	
	282	1	1	1.07623		8.89002		0.00593	
	283	1	1	1.16920		8.94002		1.12329	
	284	1	1	1.84205		9.83559		1.19319	
	285	1	1	0.99873		9.55547		1.87876	
	286	1	1	9.96288		9.15708		1.71164	
	287	1	1	0.58911		0.08835		1.72614	
	288	1	1	0.50640		9.16905		1.08763	
	289	1	1	1.62364		9.27536		1.09925	
	290	1	1	1.66834		0.39418		1.17591	
	291	1	1	0.85385		9.84263		1.71632	
	292	1	1	0.43108		0.22620		0.74999	
	293	1	1	1.04627		1.16489		0.75622	
	294	1	1	0.47810		2.12999		0.82971	
	295	1	1	1.51382		2.47251		0.56587	
	296	1	1	2.57101		2.45879		0.94242	
	297	1	1	2.62063		1.51626		0.33510	
	298	1	1	2.06561		2.29464		0.92310	
	299	1	1	1.19663		1.66499		1.25182	
	300	1	1	0.84902		1.26127		2.23965	
	301	1	1	9.93430		0.98502		1.65091	
	302	1	1	9.39160		0.30036		0.94638	
	303	1	1	9.26095		0.25741		9.83250	
	304	1	1	8.80610		0.66217		0.77534	
	305	1	1	9.68526		0.31375		0.17092	
	306	1	1	8.82300		9.73509		9.74512	
	307	1	1	9.35295		0.37597		8.99142	
	308	1	1	9.85257		0.35511		7.98663	
	309	1	1	0.52025		0.33268		8.88849	
	310	1	1	1.26667		9.49636		8.94413	
	311	1	1	1.54109		9.61333		7.86216	
	312	1	1	2.60373		9.95312		7.73973	
	313	1	1	2.49144		9.80360		8.84639	
	314	1	1	1.71869		0.59683		9.02883	
	315	1	1	0.68083		0.17250		9.07814	
	316	1	1	1.27383		9.24859		9.31136	
	317	1	1	2.37808		9.42675		9.21905	
	318	1	1	1.40917		9.93633		9.46640	
	319	1	1	0.89813		9.89375		8.46806	
	320	1	1	0.90905		0.77042		7.76737	
	321	1	1	1.89521		1.21391		8.06813	
	322	1	1	2.58449		0.39150		8.39705	
	323	1	1	3.05330		9.74727		9.18751	
	324	1	1	2.41059		0.62866		8.92343	
	325	1	1	2.02386		9.65515		9.32639	
	326	1	1	1.19130		9.93494		8.62768	
	327	1	1	1.73399		8.98487		8.37767	
	328	1	1	0.75535		9.53344		8.34621	
	329	1	1	1.00432		9.75448		9.41803	
	330	1	1	0.71515		0.73881		8.96293	
	331	1	1	1.14557		1.72324		8.63845	
	332	1	1	1.15413		0.73442		9.16932	
	333	1	1	1.13729		0.77133		8.04771	
	334	1	1	0.76849		1.77534		7.70771	
	335	1	1	1.40070		1.70847		8.63263	
	336	1	1	1.63878		1.46966		9.70312	
	337	1	1	1.86921		1.33281		0.79299	
	338	1	1	1.79181		0.21542		0.86429	
	339	1	1	1.99572		9.88324		1.91678	
	340	1	1	1.32630		0.40314		1.18110	
	341	1	1	1.09219		9.49877		1.80316	
	342	1	1	1.76417		9.37783		0.91240	
	343	1	1	1.93616		8.26879		0.90252	
	344	1	1	1.35287		9.14888		1.28313	
	345	1	1	1.29755		0.09734		1.88063	
	346	1	1	0.58375		9.39298		2.38463	
	347	1	1	9.84725		0.18608		2.08763	
	348	1	1	0.38710		9.40149		1.49381	
	349	1	1	0.28535		0.42739		1.93747	
	350	1	1	0.19514		9.43211		2.44828	
	351	1	1	9.09710		9.20100		2.42541	
	352	1	1	8.41424		0.06245		2.65180	
	353	1	1	7.52474		0.28894		3.29766	
	354	1	1	8.63777		0.35049		3.42810	
	355	1	1	8.29312		0.12234		2.38464	
	356	1	1	7.82314		9.11869		2.56197	
	357	1	1	8.65158		8.88201		1.84272	
	358	1	1	9.39899		8.05263		1.95744	
	359	1	1	9.85905		7.57735		1.05075	
	360	1	1	0.67183		8.31441		1.28694	
	361	1	1	1.36128		8.66516		2.10013	
	362	1	1	0.83387		8.70342		3.09009	
	363	1	1	0.32749		9.64777		3.42388	
	364	1	1	0.83341		0.33237		2.69243	
	365	1	1	1.44438		0.49210		1.76461	
	366	1	1	1.63973		1.38263		2.41917	
	367	1	1	1.32156		2.45599		2.33979	
	368	1	1	1.73949		1.52544		1.87175	
	369	1	1	2.39177		2.03243		2.63145	
	370	1	1	2.27988		1.18984		1.89853	
	371	1	1	2.75357		1.11282		2.91309	
	372	1	1	2.25261		0.85255		1.94307	
	373	1	1	1.23961		0.86624		2.42607	
	374	1	1	1.01582		0.23566		1.52499	
	375	1	1	0.35476		9.33402		1.62340	
	376	1	1	1.11629		9.14881		0.82002	
	377	1	1	0.29862		9.83956		1.15756	
	378	1	1	0.15497		0.24977		0.12279	
	379	1	1	0.83058		0.91531		9.52258	
	380	1	1	0.06952		1.70556		9.75909	
	381	1	1	0.46889		1.31800		0.73374	
	382	1	1	0.89603		0.47835		0.12367	
	383	1	1	0.31185		9.88121		0.87321	
	384	1	1	0.52054		0.95770		1.11256	
	385	1	1	9.90630		1.10227		0.18441	
	386	1	1	8.81613		1.00017		0.43086	
	387	1	1	8.12316		1.48744		1.16708	
	388	1	1	8.96747		2.16014		0.86005	
	389	1	1	8.06626		1.82297		0.28232	
	390	1	1	8.56538		0.87940		9.93563	
	391	1	1	9.65602		0.96537		0.18615	
	392	1	1	9.62824		1.81755		0.91599	
	393	1	1	0.21737		2.41773		0.17278	
	394	1	1	1.20719		2.69247		9.72065	
	395	1	1	1.39796		2.71905		0.82633	
	396	1	1	2.03964		1.80866		0.96442	
	397	1	1	1.87536		2.69333		1.63525	
	398	1	1	2.19757		2.77225		0.56305	
	399	1	1	2.66462		3.77158		0.77006	
	400	1	1	1.88811		3.99775		9.99191	
	401	1	2	1.67861		3.27229		0.82225	
	402	1	2	2.64727		2.83054		0.46702	
	403	1	2	2.17485		2.62612		9.46969	
	404	1	2	3.05867		2.24604		8.89171	
	405	1	2	2.53669		2.86716		9.66720	
	406	1	2	3.10299		2.39983		8.81835	
	407	1	2	3.16696		3.04533		9.73425	
	408	1	2	3.06157		3.29960		8.64619	
	409	1	2	2.50127		3.03005		7.71181	
	410	1	2	2.27518		1.93416		7.62489	
	411	1	2	2.16003		1.66731		6.54084	
	412	1	2	2.93764		1.07505		7.09238	
	413	1	2	2.96463		1.84743		7.90624	
	414	1	2	3.64171		0.99471		7.63408	
	415	1	2	4.16768		0.88241		8.61916	
	416	1	2	4.24693		9.87483		8.13117	
	417	1	2	4.37593		0.36964		9.13025	
	418	1	2	5.31432		9.76504		9.01395	
	419	1	2	4.84111		9.05392		9.74197	
	420	1	2	5.66091		9.24653		0.48391	
	421	1	2	5.59612		0.17145		1.11634	
	422	1	2	5.95458		1.20063		0.84813	
	423	1	2	5.61957		0.70500		1.79775	
	424	1	2	4.90660		1.42449		2.28111	
	425	1	2	5.00091		0.55656		1.57581	
	426	1	2	5.83114		1.21749		1.94127	
	427	1	2	4.90295		0.60678		2.09988	
	428	1	2	5.08354		1.54860		2.68298	
	429	1	2	5.18967		1.62598		1.56835	
	430	1	2	5.70406		1.27339		0.63522	
	431	1	2	5.15408		2.21087		0.91505	
	432	1	2	5.86526		2.74261		1.60143	
	433	1	2	5.28752		1.84523		1.94866	
	434	1	2	5.40897		0.82127		1.50548	
	435	1	2	5.70917		9.79180		1.83672	
	436	1	2	5.70677		9.54271		0.74238	
	437	1	2	5.37764		8.56984		0.28976	
	438	1	2	4.53609		8.99913		9.68382	
	439	1	2	5.00431		9.92055		0.12131	
	440	1	2	5.14774		0.87554		0.69321	
	441	1	2	5.48156		0.46474		9.70353	
	442	1	2	5.12989		9.98462		0.65509	
	443	1	2	4.62250		8.98377		0.67741	
	444	1	2	5.52687		8.41254		0.33763	
	445	1	2	5.43900		8.56153		9.22870	
	446	1	2	4.70762		7.84548		9.68913	
	447	1	2	5.72800		7.37924		9.65607	
	448	1	2	6.72019		7.32400		9.13437	
	449	1	2	7.50171		6.89865		8.45031	
	450	1	2	7.34815		7.58357		7.57455	
	451	1	2	6.78498		7.31717		6.64101	
	452	1	2	7.26949		7.91307		5.82260	
	453	1	2	7.18635		9.01938		5.65290	
	454	1	2	7.87253		8.37111		6.25998	
	455	1	2	6.87894		8.88907		6.32439	
	456	1	2	7.52321		9.53582		6.97729	
	457	1	2	7.16436		0.52607		6.58963	
	458	1	2	6.85491		0.93495		5.59128	
	459	1	2	7.65218		1.60645		6.00732	
	460	1	2	8.01953		2.62957		5.72817	
	461	1	2	8.38261		2.58322		4.66719	
	462	1	2	8.30935		2.00223		3.70973	
	463	1	2	8.26155		1.21671		4.50993	
	464	1	2	9.23799		1.25286		3.95774	
	465	1	2	9.41874		0.21755		3.56389	
	466	1	2	9.22796		9.64115		4.50783	
	467	1	2	9.83921		9.96536		5.39152	
	468	1	2	8.74371		9.88578		5.62219	
	469	1	2	8.36398		0.83954		5.16854	
	470	1	2	7.56612		0.06154		5.30194	
	471	1	2	7.49281		0.55782		4.29795	
	472	1	2	8.07216		0.14552		3.42961	
	473	1	2	8.44066		1.03487		2.85261	
	474	1	2	7.35478		1.27677		3.00088	
	475	1	2	6.40720		1.02884		2.45291	
	476	1	2	5.72088		0.69246		1.63104	
	477	1	2	5.15714		1.39965		0.96642	
	478	1	2	4.69336		0.37776		0.94915	
	479	1	2	4.19297		1.32095		0.60323	
	480	1	2	4.62732		2.08774		9.90823	
	481	1	2	4.06496		1.42547		0.61871	
	482	1	2	4.20565		0.67749		9.79386	
	483	1	2	4.59559		0.53247		0.83624	
	484	1	2	4.34496		1.59532		0.57707	
	485	1	2	5.28624		1.18535		0.12367	
	486	1	2	4.16594		1.16985		0.05776	
	487	1	2	4.26014		2.13273		0.62665	
	488	1	2	4.71641		2.41795		1.61159	
	489	1	2	4.99303		1.73066		0.76853	
	490	1	2	5.21982		1.85223		1.86097	
	491	1	2	6.02046		1.07295		1.96749	
	492	1	2	5.96723		0.24755		2.72612	
	493	1	2	6.62554		9.63378		2.05563	
	494	1	2	7.66555		0.00637		2.25362	
	495	1	2	8.11945		8.98588		2.36419	
	496	1	2	7.19129		8.50726		2.77540	
	497	1	2	6.38771		9.28317		2.66646	
	498	1	2	5.72190		8.38063		2.70851	
	499	1	2	5.92821		8.42052		1.60602	
	500	1	2	4.86187		8.20520		1.32999	
	501	1	2	4.90824		8.00804		2.43390	
	502	1	2	3.93095		7.55807		2.11441	
	503	1	2	4.81406		8.15337		2.46852	
	504	1	2	5.12063		9.21569		2.66119	
	505	1	2	4.11974		9.42275		3.12485	
	506	1	2	4.86504		9.49572		2.28889	
	507	1	2	5.33043		9.49824		1.26758	
	508	1	2	4.24985		9.37715		1.54567	
	509	1	2	4.30116		8.32229		1.92553	
	510	1	2	3.54903		7.72191		2.50301	
	511	1	2	2.53953		8.06686		2.85167	
	512	1	2	3.21854		7.17465		2.80100	
	513	1	2	3.94944		7.72735		2.15297	
	514	1	2	4.42259		6.71668		2.03328	
	515	1	2	4.53463		5.70753		2.51152	
	516	1	2	3.85516		5.98430		3.36085	
	517	1	2	2.87715		5.76376		2.85636	
	518	1	2	3.89337		5.64690		2.39454	
	519	1	2	3.17129		5.73733		3.24898	
	520	1	2	3.77614		5.59472		4.18357	
	521	1	2	4.72807		6.10965		3.88636	
	522	1	2	3.77099		6.69516		3.85795	
	523	1	2	3.36581		7.22402		4.76116	
	524	1	2	3.21360		7.04571		3.66358	
	525	1	2	3.52935		6.04030		4.04972	
	526	1	2	3.82915		5.61556		3.05506	
	527	1	2	2.83720		5.94790		3.46155	
	528	1	2	3.29017		6.60916		4.24717	
	529	1	2	2.93706		7.62458		4.56946	
	530	1	2	3.97018		8.02118		4.75657	
	531	1	2	3.18412		8.22042		3.98065	
	532	1	2	4.24651		8.08786		3.64390	
	533	1	2	3.48189		7.38701		3.21516	
	534	1	2	2.75107		7.60182		2.39090	
	535	1	2	2.30406		6.93994		1.60240	
	536	1	2	1.64545		6.98262		0.69462	
	537	1	2	1.30112		6.85768		9.63374	
	538	1	2	0.56210		6.01700		9.55162	
	539	1	2	1.05578		6.12834		0.55338	
	540	1	2	1.10171		5.06724		0.91615	
	541	1	2	1.98817		5.37641		0.30114	
	542	1	2	1.93762		4.78470		1.25349	
	543	1	2	2.14932		5.38952		2.17492	
	544	1	2	3.23171		5.12063		2.04930	
	545	1	2	3.41982		4.37328		1.23337	
	546	1	2	2.89546		4.58922		0.26483	
	547	1	2	2.44283		5.32418		0.98219	
	548	1	2	3.48619		4.95292		0.79994	
	549	1	2	3.58606		4.21246		9.96244	
	550	1	2	3.48941		4.49833		8.88143	
	551	1	2	2.68388		4.56312		8.10260	
	552	1	2	2.87552		5.48708		8.71023	
	553	1	2	2.89401		4.36542		8.67601	
	554	1	2	3.02578		3.65103		7.82047	
	555	1	2	3.27901		2.96664		6.96775	
	556	1	2	2.42381		2.78021		7.67026	
	557	1	2	2.68694		3.86890		7.74218	
	558	1	2	2.67934		3.17585		6.85941	
	559	1	2	3.69461		3.36077		6.41818	
	560	1	2	4.28490		2.59120		6.98296	
	561	1	2	5.18595		2.65695		6.31705	
	562	1	2	4.30680		2.41397		5.66307	
	563	1	2	3.83788		1.42219		5.42617	
	564	1	2	3.66403		1.63184		6.51496	
	565	1	2	3.55998		1.55945		5.39980	
	566	1	2	4.65500		1.68704		5.18933	
	567	1	2	5.35137		1.22148		5.93631	
	568	1	2	6.22427		1.37830		6.62413	
	569	1	2	5.27255		1.24291		7.20340	
	570	1	2	4.18472		1.51611		7.24359	
	571	1	2	4.95558		2.31768		7.39495	
	572	1	2	6.04515		2.40384		7.13988	
	573	1	2	5.67739		1.37995		6.86413	
	574	1	2	5.86457		2.14002		6.05983	
	575	1	2	5.15036		2.27869		5.20525	
	576	1	2	5.63738		1.32763		4.86183	
	577	1	2	5.97456		0.40354		5.40221	
	578	1	2	6.14556		0.77776		4.35801	
	579	1	2	6.35053		9.75363		3.94718	
	580	1	2	7.13400		0.30237		4.53429	
	581	1	2	8.19914		0.54055		4.79582	
	582	1	2	8.54287		0.47853		3.72921	
	583	1	2	8.52516		1.51299		3.29422	
	584	1	2	8.36853		2.24144		2.45489	
	585	1	2	8.24526		3.11650		1.76300	
	586	1	2	7.79826		2.26177		2.33681	
	587	1	2	7.62519		3.28047		1.89870	
	588	1	2	6.87799		3.44518		1.07760	
	589	1	2	7.71937		3.53880		1.81446	
	590	1	2	7.70181		3.63876		2.93220	
	591	1	2	8.78715		3.59110		3.21399	
	592	1	2	7.83735		4.11947		3.49391	
	593	1	2	6.86228		4.27040		2.95902	
	594	1	2	7.92942		4.38627		2.63123	
	595	1	2	8.22064		3.59332		1.89226	
	596	1	2	7.81194		3.19301		0.92667	
	597	1	2	7.30947		3.25408		1.92839	
	598	1	2	7.72819		3.29649		0.88795	
	599	1	2	8.73454		3.79336		0.89161	
	600	1	2	7.66900		4.09965		1.06613	
	601	1	2	8.72230		4.47744		1.15265	
	602	1	2	8.33156		4.17370		2.15998	
	603	1	2	8.59867		3.51516		1.29129	
	604	1	2	7.61078		2.99441		1.17930	
	605	1	2	7.60112		2.93772		0.05844	
	606	1	2	6.68869		3.58953		0.10598	
	607	1	2	7.77076		3.34884		0.28162	
	608	1	2	8.09994		4.11604		1.03175	
	609	1	2	7.36537		4.38022		1.83814	
	610	1	2	8.14223		3.74701		1.33298	
	611	1	2	7.34692		3.01019		1.04278	
	612	1	2	7.69722		3.86970		0.41176	
	613	1	2	6.99644		2.99798		0.31867	
	614	1	2	7.67106		3.49305		9.57071	
	615	1	2	8.22532		4.27078		0.16028	
	616	1	2	8.43747		3.91838		1.20453	
	617	1	2	7.95610		4.79571		1.71268	
	618	1	2	8.25452		5.82269		1.37224	
	619	1	2	9.35245		5.69585		1.56744	
	620	1	2	9.73602		6.26725		0.68086	
	621	1	2	0.12089		6.53645		1.70020	
	622	1	2	9.22880		7.20121		1.84824	
	623	1	2	9.43133		6.23287		2.37829	
	624	1	2	8.72556		6.29961		1.50818	
	625	1	2	8.40313		7.06861		0.75696	
	626	1	2	8.45033		6.01199		1.13243	
	627	1	2	8.08355		4.98983		0.84904	
	628	1	2	9.02836		5.59482		0.88041	
	629	1	2	8.59972		5.12878		1.80709	
	630	1	2	9.02670		5.10496		0.76941	
	631	1	2	9.10516		5.21714		1.88337	
	632	1	2	9.67147		4.25185		1.96793	
	633	1	2	0.62910		3.67174		2.04582	
	634	1	2	1.66972		3.39034		1.73346	
	635	1	2	2.43078		2.72656		2.22317	
	636	1	2	2.00998		2.22092		1.31383	
	637	1	2	1.89910		3.02979		0.54371	
	638	1	2	1.80912		3.26576		9.45015	
	639	1	2	0.87601		3.39868		8.84082	
	640	1	2	0.34745		2.63764		8.20751	
	641	1	2	9.97503		3.64975		8.51828	
	642	1	2	0.01763		3.79676		7.40642	
	643	1	2	0.79401		4.30022		6.77127	
	644	1	2	1.77407		4.73912		7.09762	
	645	1	2	2.55623		4.04164		7.49934	
	646	1	2	2.90598		3.81182		8.54073	
	647	1	2	2.78250		4.37754		7.57930	
	648	1	2	2.14516		5.16416		7.09487	
	649	1	2	1.65644		5.88482		7.80300	
	650	1	2	2.12112		5.87650		6.78141	
	651	1	2	2.53579		6.77139		7.31702	
	652	1	2	2.90514		6.19629		6.42680	
	653	1	2	2.22627		6.85699		7.02868	
	654	1	2	1.81913		7.90017		7.10383	
	655	1	2	1.45360		7.26859		7.95655	
	656	1	2	2.42314		7.57642		8.43077	
	657	1	2	1.51716		7.54617		9.09254	
	658	1	2	2.39879		7.55190		8.39803	
	659	1	2	3.50479		7.59246		8.21158	
	660	1	2	3.91825		7.82382		9.22902	
	661	1	2	3.89524		7.95523		8.11464	
	662	1	2	3.42421		6.99760		8.46209	
	663	1	2	2.36408		6.78410		8.76241	
	664	1	2	3.27562		7.42402		8.62370	
	665	1	2	4.20735		8.04973		8.62009	
	666	1	2	4.88519		7.98446		7.72795	
	667	1	2	5.68432		7.38487		8.23937	
	668	1	2	6.48828		7.69081		8.96027	
	669	1	2	6.02991		8.68464		9.20895	
	670	1	2	6.93156		8.66910		8.54079	
	671	1	2	7.11325		9.26593		9.47376	
	672	1	2	6.54153		0.12553		9.03344	
	673	1	2	5.51849		0.06874		9.49148	
	674	1	2	5.65353		1.01592		0.07822	
	675	1	2	6.65436		1.51153		0.18940	
	676	1	2	7.62584		1.77974		0.68329	
	677	1	2	7.32219		0.70384		0.78272	
	678	1	2	7.00139		0.62409		9.71017	
	679	1	2	7.47693		1.61533		9.48440	
	680	1	2	6.65406		2.04658		0.11413	
	681	1	2	5.66228		2.53135		9.91159	
	682	1	2	4.86458		2.06211		9.27667	
	683	1	2	4.28564		2.04422		0.23800	
	684	1	2	3.46685		2.27828		9.50694	
	685	1	2	3.01151		1.27900		9.73878	
	686	1	2	2.30540		0.59740		9.19427	
	687	1	2	1.94223		1.14343		8.28345	
	688	1	2	2.76862		1.71382		7.78206	
	689	1	2	1.74127		2.01687		8.11727	
	690	1	2	2.56793		1.34216		7.76937	
	691	1	2	1.77658		0.60705		7.46436	
	692	1	2	0.83536		1.02490		7.01809	
	693	1	2	9.85849		0.49093		6.87577	
	694	1	2	9.09899		1.25418		7.19239	
	695	1	2	8.89962		1.92047		8.07328	
	696	1	2	9.57922		2.81079		8.00167	
	697	1	2	9.30090		2.31578		8.96974	
	698	1	2	9.01364		3.33736		9.33511	
	699	1	2	8.08098		2.81745		8.98946	
	700	1	2	9.20081		2.80938		8.91496	
	701	1	2	0.09616		2.15723		9.09578	
	702	1	2	0.15048		2.53682		8.04097	
	703	1	2	0.11062		3.65405		7.94173	
	704	1	2	0.43146		2.99560		8.79211	
	705	1	2	9.84131		2.19434		8.27310	
	706	1	2	0.66661		2.95203		8.33975	
	707	1	2	1.64788		2.70027		8.82284	
	708	1	2	2.18505		2.11131		9.61292	
	709	1	2	1.88870		2.23208		8.53717	
	710	1	2	1.53125		2.41947		7.48991	
	711	1	2	2.52993		2.71815		7.90593	
	712	1	2	3.34363		3.48902		7.84850	
	713	1	2	2.28995		3.66148		8.19442	
	714	1	2	3.05761		4.47927		8.15479	
	715	1	2	2.24715		4.41470		7.38108	
	716	1	2	2.81780		4.99627		6.60921	
	717	1	2	2.67559		5.12433		7.71511	
	718	1	2	3.50906		4.41201		7.47515	
	719	1	2	4.23505		3.92837		8.18133	
	720	1	2	4.52458		2.97841		8.70419	
	721	1	2	4.50516		3.23467		9.79671	
	722	1	2	5.52048		2.78555		9.96122	
	723	1	2	4.88042		1.87308		9.82946	
	724	1	2	5.78181		1.47023		9.29575	
	725	1	2	6.22141		1.17134		0.28421	
	726	1	2	6.17038		1.22042		1.40432	
	727	1	2	5.71037		0.57977		0.60581	
	728	1	2	6.34810		9.67499		0.42055	
	729	1	2	6.14929		8.68003		9.94077	
	730	1	2	6.68795		8.51914		0.91217	
	731	1	2	6.28026		8.25417		9.90063	
	732	1	2	6.52968		7.28771		9.38741	
	733	1	2	7.42248		6.81118		9.87266	
	734	1	2	8.36717		6.41263		0.32912	
	735	1	2	7.28800		6.42997		0.02133	
	736	1	2	7.67341		6.32446		8.97254	
	737	1	2	8.20340		6.62021		8.02845	
	738	1	2	8.86634		7.03812		8.83189	
	739	1	2	8.66018		6.91653		7.73537	
	740	1	2	7.94696		6.73200		8.58207	
	741	1	2	7.55200		7.01210		9.59459	
	742	1	2	7.65238		8.06827		9.22842	
	743	1	2	7.36823		7.32391		0.01888	
	744	1	2	7.12814		8.24045		0.62050	
	745	1	2	7.17888		7.20999		1.06233	
	746	1	2	6.98071		7.79751		1.99785	
	747	1	2	6.03752		8.12872		2.50808	
	748	1	2	6.04018		7.42249		3.38036	
	749	1	2	5.93422		8.16410		2.54464	
	750	1	2	6.73735		8.24064		1.76440	
	751	1	2	5.84426		8.75116		2.21318	
	752	1	2	6.18005		8.03704		1.41511	
	753	1	2	5.85944		7.05835		1.86122	
	754	1	2	5.69397		5.94916		1.90542	
	755	1	2	6.15147		4.95169		2.14082	
	756	1	2	7.15943		5.36661		2.40821	
	757	1	2	7.87043		6.07716		1.90896	
	758	1	2	7.51921		7.13687		1.79358	
	759	1	2	8.53627		6.67673		1.67735	
	760	1	2	8.57131		7.54745		2.38465	
	761	1	2	7.89253		7.82135		3.23546	
	762	1	2	7.92625		7.72033		2.11818	
	763	1	2	7.21085		6.85612		2.14959	
	764	1	2	7.06603		6.97968		3.25566	
	765	1	2	6.57171		7.49991		4.11860	
	766	1	2	7.17642		7.85887		4.99332	
	767	1	2	6.94051		8.75602		4.36156	
	768	1	2	6.49207		8.35592		5.30944	
	769	1	2	6.44036		9.47706		5.30578	
	770	1	2	5.37308		9.80580		5.41758	
	771	1	2	6.02564		8.95899		5.07595	
	772	1	2	6.08990		9.88484		5.70707	
	773	1	2	5.27077		9.72545		4.95657	
	774	1	2	4.90946		9.66459		6.01742	
	775	1	2	4.35516		8.78796		5.58854	
	776	1	2	4.72956		9.32899		6.49781	
	777	1	2	4.68551		0.29610		5.92999	
	778	1	2	4.54431		1.09453		5.15397	
	779	1	2	4.19458		1.58385		4.20639	
	780	1	2	4.08606		2.43738		3.48573	
	781	1	2	5.06587		2.84696		3.12260	
	782	1	2	6.07955		2.37093		3.19679	
	783	1	2	7.10393		2.33664		3.65407	
	784	1	2	6.48880		2.37332		4.59211	
	785	1	2	6.10828		3.32198		4.12855	