#-----------------------------------------------------------------------------------           
# NANOPOLY - POLYMER NANOCOMPOSITE STRUCTURAL DATA FILE                                        
#-----------------------------------------------------------------------------------           
# FILENAME:  test_structure.in                                                                  
# DATE: 2021-08-17                                                                                
#-----------------------------------------------------------------------------------           
                                                                                               
800 atoms                                                             
799 bonds                                                             
                                                                                               
2 atom types                                      
1 bond types                                            
                                                                                    
0.0000 100.0000 xlo xhi            
0.0000 100.0000 ylo yhi            
0.0000 100.0000 zlo zhi            
                                                                                    
                                                                                    
# Types have been converted numerically as follows:                                 
# 1 a
# 2 b
                                                                                    
Masses                                                                              
                                                                                    
1	1.0
2	0.5

Atoms                                                                               

	1	1	1	54.64890		87.29276		92.15506	
	2	1	1	55.76929		87.35241		92.18346	
	3	1	1	56.50299		86.58409		91.82150	
	4	1	1	55.69802		86.69956		91.04798	
	5	1	1	56.48581		87.48161		90.88239	
	6	1	1	57.09566		87.64907		91.80958	
	7	1	1	57.63592		88.62136		91.65991	
	8	1	1	57.56233		88.66336		90.54078	
	9	1	1	57.72339		88.79157		89.43748	
	10	1	1	58.35121		89.65950		89.77241	
	11	1	1	58.89672		89.52991		90.74466	
	12	1	1	59.48996		88.57862		90.79710	
	13	1	1	58.74411		88.12033		91.49947	
	14	1	1	58.49366		87.59909		92.46136	
	15	1	1	59.31420		87.18954		93.10838	
	16	1	1	59.28322		86.50226		92.22162	
	17	1	1	60.18742		86.83340		91.64506	
	18	1	1	61.25877		86.85558		91.97878	
	19	1	1	61.93261		86.00360		91.69645	
	20	1	1	62.99385		85.65492		91.80528	
	21	1	1	62.47041		84.85459		91.21782	
	22	1	1	62.63538		84.62935		92.30488	
	23	1	1	62.77475		85.03149		93.34339	
	24	1	1	63.26663		85.98304		93.67845	
	25	1	1	63.54139		85.96350		94.76647	
	26	1	1	62.99566		86.05102		95.74328	
	27	1	1	62.58217		86.67921		96.57637	
	28	1	1	63.08660		86.21985		97.46754	
	29	1	1	63.96858		85.89549		98.08117	
	30	1	1	63.96768		84.77342		98.05614	
	31	1	1	65.07553		84.63412		98.16979	
	32	1	1	66.04325		85.05960		97.79278	
	33	1	1	66.72843		84.18168		97.93224	
	34	1	1	66.58403		83.61261		96.97571	
	35	1	1	66.99890		84.64368		96.81942	
	36	1	1	68.11383		84.56268		96.71937	
	37	1	1	68.59248		85.46309		96.25054	
	38	1	1	68.58841		84.71223		95.41637	
	39	1	1	68.73061		83.68228		95.83903	
	40	1	1	67.97986		83.05134		96.38486	
	41	1	1	68.35000		82.44197		95.51809	
	42	1	1	67.78005		81.82674		94.77223	
	43	1	1	66.74599		81.69215		94.35722	
	44	1	1	65.93101		82.29852		94.83448	
	45	1	1	65.74531		81.92746		95.87730	
	46	1	1	66.12086		81.24908		96.68872	
	47	1	1	65.02601		81.49318		96.72557	
	48	1	1	64.32652		81.18576		97.54767	
	49	1	1	64.56055		80.13034		97.24606	
	50	1	1	64.28237		79.09556		97.57998	
	51	1	1	65.15699		78.39273		97.55324	
	52	1	1	64.82864		78.35989		98.62597	
	53	1	1	64.95384		78.93565		99.58121	
	54	1	1	64.63893		78.20155		0.36961	
	55	1	1	63.54125		78.30790		0.57803	
	56	1	1	62.76630		79.07026		0.29893	
	57	1	1	62.15711		79.66983		99.57157	
	58	1	1	62.58274		80.58488		0.06267	
	59	1	1	63.11064		80.69431		1.04705	
	60	1	1	62.83712		79.73171		1.55521	
	61	1	1	61.84705		80.07887		1.15662	
	62	1	1	61.40069		79.15593		0.69989	
	63	1	1	61.78730		78.42263		1.45650	
	64	1	1	61.58531		78.73288		2.51602	
	65	1	1	60.56582		79.18492		2.64230	
	66	1	1	60.13429		79.63369		3.57613	
	67	1	1	59.73584		79.57676		4.62381	
	68	1	1	60.02152		78.54371		4.29088	
	69	1	1	59.76965		77.45545		4.18180	
	70	1	1	59.06246		76.59690		4.03204	
	71	1	1	58.53149		77.52348		4.37723	
	72	1	1	57.77274		77.57754		3.55199	
	73	1	1	57.83017		78.69135		3.67764	
	74	1	1	58.31698		79.68681		3.49956	
	75	1	1	58.31154		78.95406		2.64944	
	76	1	1	59.00365		78.59396		1.84263	
	77	1	1	59.89801		79.12197		1.41723	
	78	1	1	60.74527		79.84956		1.52866	
	79	1	1	60.32054		80.87318		1.70600	
	80	1	1	60.80375		81.66466		2.33822	
	81	1	1	60.59970		81.84661		3.42675	
	82	1	1	61.14746		81.26406		4.21431	
	83	1	1	61.59662		80.55571		3.46855	
	84	1	1	62.65477		80.39585		3.80678	
	85	1	1	63.56641		80.45668		4.45861	
	86	1	1	64.10562		80.56819		5.43659	
	87	1	1	63.85816		81.53345		4.92018	
	88	1	1	64.95130		81.75968		5.03640	
	89	1	1	65.35313		81.86340		6.07920	
	90	1	1	64.82122		82.84779		6.16697	
	91	1	1	63.86955		82.40141		6.56031	
	92	1	1	63.47319		83.34806		6.10600	
	93	1	1	62.54855		82.71308		6.06765	
	94	1	1	62.65381		83.37071		6.97103	
	95	1	1	62.51451		82.64994		7.81999	
	96	1	1	61.64200		83.34010		7.67145	
	97	1	1	61.36830		82.39249		7.13594	
	98	1	1	60.49766		82.57697		6.45212	
	99	1	1	60.42899		83.27007		7.33220	
	100	1	1	60.01932		82.60919		8.14156	
	101	1	1	59.09902		82.09131		7.76144	
	102	1	1	58.38207		82.76424		7.22033	
	103	1	1	58.21448		81.76891		6.72953	
	104	1	1	57.21818		81.32984		7.00201	
	105	1	1	57.01745		82.25829		7.59979	
	106	1	1	56.36617		82.24741		8.51377	
	107	1	1	57.45055		82.51547		8.62291	
	108	1	1	57.83264		83.54067		8.37268	
	109	1	1	58.30738		83.71827		9.37405	
	110	1	1	57.57228		83.35237		10.13915	
	111	1	1	56.82572		84.13453		10.44003	
	112	1	1	57.62099		84.15068		11.23182	
	113	1	1	56.92983		83.67592		11.97783	
	114	1	1	56.84155		83.75070		13.09419	
	115	1	1	57.86892		83.35678		12.87288	
	116	1	1	57.54595		82.72676		12.00202	
	117	1	1	58.64279		82.66262		11.77296	
	118	1	1	58.59970		81.57326		12.03960	
	119	1	1	59.00965		80.60481		12.43162	
	120	1	1	59.30556		79.56119		12.71963	
	121	1	1	60.25398		80.15954		12.76592	
	122	1	1	60.73374		79.32086		12.19487	
	123	1	1	60.52237		78.27527		11.84600	
	124	1	1	60.02679		77.31267		12.14173	
	125	1	1	60.26254		77.05281		11.07564	
	126	1	1	61.38296		77.08550		11.13270	
	127	1	1	61.96196		76.63093		11.97991	
	128	1	1	61.61754		75.57721		11.80468	
	129	1	1	61.51022		74.66759		11.15605	
	130	1	1	62.07749		73.87388		10.60119	
	131	1	1	62.09894		74.43127		9.62728	
	132	1	1	63.14557		74.72983		9.90127	
	133	1	1	63.56523		73.87561		9.30643	
	134	1	1	62.89094		73.14839		8.78094	
	135	1	1	63.11688		72.07092		8.56266	
	136	1	1	63.66971		71.90876		9.52584	
	137	1	1	64.65807		71.44912		9.79332	
	138	1	1	65.54771		71.27710		10.45559	
	139	1	1	66.31651		71.56872		11.21948	
	140	1	1	65.50789		71.54688		11.99750	
	141	1	1	65.02612		71.40967		13.00184	
	142	1	1	65.08528		70.53560		12.30030	
	143	1	1	64.98635		69.48984		11.90503	
	144	1	1	65.35152		68.52220		11.46918	
	145	1	1	65.83495		67.62770		11.94436	
	146	1	1	65.68968		68.09218		12.95570	
	147	1	1	65.56000		68.85792		13.76593	
	148	1	1	64.50489		69.13236		14.03253	
	149	1	1	64.60294		69.16049		15.15022	
	150	1	1	65.54620		69.32349		15.73618	
	151	1	1	65.27527		69.89100		16.66579	
	152	1	1	65.48357		70.28057		17.69753	
	153	1	1	64.42835		70.58149		17.46171	
	154	1	1	63.61583		69.84850		17.21236	
	155	1	1	63.47338		68.74833		17.04217	
	156	1	1	62.68555		69.29697		17.62351	
	157	1	1	62.86327		68.83234		18.62958	
	158	1	1	62.92346		69.28691		19.65398	
	159	1	1	62.31932		70.23271		19.66438	
	160	1	1	62.42149		70.92957		18.79054	
	161	1	1	62.02354		71.91301		19.15678	
	162	1	1	62.56343		72.59372		18.44629	
	163	1	1	62.93612		73.62138		18.70059	
	164	1	1	63.70338		73.17601		18.01312	
	165	1	1	63.34066		73.76859		17.13169	
	166	1	1	62.37006		74.29692		16.93563	
	167	1	1	61.41104		74.86488		16.80383	
	168	1	1	61.11116		74.99031		15.72959	
	169	1	1	61.17307		73.91851		16.05678	
	170	1	1	60.99381		74.08296		14.96112	
	171	1	1	60.84204		74.30337		13.87115	
	172	1	1	61.08586		75.39890		13.86824	
	173	1	1	60.72463		75.40130		12.80562	
	174	1	1	59.70042		75.83764		12.66338	
	175	1	1	60.23001		76.66433		13.20722	
	176	1	1	60.05143		76.52682		14.30670	
	177	1	1	59.12962		75.90245		14.16500	
	178	1	1	59.32114		76.39145		15.15689	
	179	1	1	58.68975		75.90288		15.94574	
	180	1	1	57.71994		76.35715		15.60996	
	181	1	1	57.07574		77.12473		15.10450	
	182	1	1	57.54292		78.12865		14.92138	
	183	1	1	57.73218		79.21489		14.71183	
	184	1	1	58.67710		78.63752		14.52903	
	185	1	1	58.33506		79.02288		13.53196	
	186	1	1	59.13300		79.70706		13.92545	
	187	1	1	59.64773		79.86366		14.91043	
	188	1	1	59.69842		80.85249		14.38195	
	189	1	1	58.58990		81.01623		14.31850	
	190	1	1	58.30914		82.08645		14.13024	
	191	1	1	57.74886		82.62408		14.94061	
	192	1	1	57.55063		83.57883		14.38493	
	193	1	1	57.42104		84.65950		14.11105	
	194	1	1	57.89559		85.61533		13.76340	
	195	1	1	58.83248		85.28585		13.24060	
	196	1	1	59.22293		84.29125		12.89712	
	197	1	1	58.96584		84.03921		13.96014	
	198	1	1	59.45506		83.09995		13.58850	
	199	1	1	60.54843		82.89743		13.43630	
	200	1	1	61.52665		83.41465		13.24864	
	201	1	1	61.37026		82.43529		12.72325	
	202	1	1	61.93559		81.63961		12.16922	
	203	1	1	62.64962		81.46159		11.32180	
	204	1	1	63.36812		81.62348		12.16867	
	205	1	1	63.78909		81.06337		13.04543	
	206	1	1	63.78183		80.25708		13.82613	
	207	1	1	62.85380		79.62698		13.78872	
	208	1	1	62.21171		80.43893		13.35500	
	209	1	1	61.96221		79.39387		13.03057	
	210	1	1	61.04624		79.73495		13.58221	
	211	1	1	61.10479		80.17348		14.61367	
	212	1	1	62.20631		80.35444		14.73004	
	213	1	1	62.73613		81.14521		15.32471	
	214	1	1	62.78188		80.08529		15.69094	
	215	1	1	62.04901		79.24760		15.54665	
	216	1	1	61.71607		78.26995		15.98596	
	217	1	1	61.44137		79.10280		16.68636	
	218	1	1	60.63263		78.77448		17.39189	
	219	1	1	60.18782		79.66846		16.87945	
	220	1	1	60.53199		79.86366		15.82917	
	221	1	1	61.23578		80.67673		16.15050	
	222	1	1	61.61057		81.70640		15.90768	
	223	1	1	60.90684		82.56502		15.74282	
	224	1	1	60.11122		82.32441		14.98867	
	225	1	1	59.30307		82.29318		15.76685	
	226	1	1	59.72757		82.78098		16.68419	
	227	1	1	60.07616		83.03918		17.71930	
	228	1	1	60.12918		84.15699		17.63371	
	229	1	1	60.46957		83.86697		18.66311	
	230	1	1	59.47588		84.09212		19.13379	
	231	1	1	58.47091		84.45571		19.47655	
	232	1	1	58.96606		85.31148		20.00771	
	233	1	1	59.02617		86.28660		20.56014	
	234	1	1	58.29836		87.14026		20.52533	
	235	1	1	57.51211		86.82380		21.26107	
	236	1	1	58.55524		86.93293		21.66059	
	237	1	1	58.95944		87.82275		22.21241	
	238	1	1	58.68884		88.69173		22.86914	
	239	1	1	59.71808		88.24821		22.92920	
	240	1	1	60.52217		88.95076		22.58353	
	241	1	1	61.45727		88.78381		21.98573	
	242	1	1	61.03859		87.75563		21.82084	
	243	1	1	60.96493		88.29270		20.83810	
	244	1	1	62.03226		88.63838		20.80704	
	245	1	1	63.11438		88.71228		21.09550	
	246	1	1	63.77019		87.80840		20.98340	
	247	1	1	64.57958		88.49456		20.61771	
	248	1	1	63.86719		88.06097		19.86661	
	249	1	1	63.52680		88.71154		19.01776	
	250	1	1	63.85572		87.77672		18.49092	
	251	1	1	62.94998		87.58010		19.12387	
	252	1	1	62.20900		88.37747		18.85040	
	253	1	1	62.41081		89.38832		19.29435	
	254	1	1	63.02946		90.27221		19.60364	
	255	1	1	63.98077		89.80366		19.23606	
	256	1	1	64.74106		89.41066		18.51000	
	257	1	1	65.39616		90.25926		18.84221	
	258	1	1	65.70695		91.28878		19.16335	
	259	1	1	64.88297		92.03915		19.03042	
	260	1	1	65.82905		92.62629		19.17132	
	261	1	1	66.12791		93.70650		19.11242	
	262	1	1	67.19976		93.68491		18.78027	
	263	1	1	66.84444		94.12979		17.81307	
	264	1	1	66.10475		94.12772		16.96898	
	265	1	1	65.74372		93.63315		16.02839	
	266	1	1	64.99453		94.31863		16.50638	
	267	1	1	63.91056		94.49733		16.73600	
	268	1	1	62.81828		94.65811		16.93780	
	269	1	1	62.90637		93.93687		17.79319	
	270	1	1	63.30536		94.14936		18.82047	
	271	1	1	62.45190		94.58559		19.40438	
	272	1	1	62.27150		93.48622		19.26842	
	273	1	1	61.48549		92.74951		19.58322	
	274	1	1	60.76367		93.60635		19.65003	
	275	1	1	60.34133		92.61113		19.34868	
	276	1	1	60.64594		93.35201		18.56257	
	277	1	1	59.79495		94.06388		18.39314	
	278	1	1	58.80172		94.40707		18.78730	
	279	1	1	59.05084		95.08545		17.92860	
	280	1	1	59.27752		95.60502		16.95993	
	281	1	1	59.65586		95.04792		16.06208	
	282	1	1	60.64362		95.57674		15.99642	
	283	1	1	61.16059		96.45970		15.53514	
	284	1	1	61.03376		97.50937		15.15864	
	285	1	1	60.68091		98.38991		15.75847	
	286	1	1	61.27836		97.61349		16.30606	
	287	1	1	61.12348		98.18400		17.26010	
	288	1	1	61.45601		99.24791		17.12907	
	289	1	1	61.30988		99.99426		16.30369	
	290	1	1	62.01929		0.13371		15.44523	
	291	1	1	62.56398		99.27763		15.92491	
	292	1	1	63.03094		98.48328		16.56569	
	293	1	1	63.86874		99.12982		16.19188	
	294	1	1	64.61536		99.58349		16.89643	
	295	1	1	64.32643		98.74298		17.58179	
	296	1	1	65.31332		98.58387		18.09207	
	297	1	1	64.56706		98.85318		18.88593	
	298	1	1	64.82198		99.94193		18.98229	
	299	1	1	65.33247		99.57654		19.91263	
	300	1	1	66.36884		99.17576		19.75459	
	301	1	1	67.01472		98.29136		19.50901	
	302	1	1	66.40829		97.61825		20.17144	
	303	1	1	66.63874		96.55279		19.90438	
	304	1	1	66.93572		96.58688		20.98618	
	305	1	1	66.54845		96.50262		22.03621	
	306	1	1	66.38953		95.39354		22.10200	
	307	1	1	66.00112		95.94815		21.20691	
	308	1	1	65.27250		95.17285		20.84960	
	309	1	1	65.36051		95.11082		19.73244	
	310	1	1	65.82647		95.32956		18.73510	
	311	1	1	66.61980		96.12263		18.69883	
	312	1	1	66.48230		97.23012		18.81808	
	313	1	1	67.28512		97.89334		18.39944	
	314	1	1	68.29261		97.40339		18.46696	
	315	1	1	68.53100		96.32711		18.67781	
	316	1	1	69.31306		95.84192		19.32017	
	317	1	1	69.41426		96.12568		20.40132	
	318	1	1	68.63762		95.34630		20.17986	
	319	1	1	67.71049		95.47584		20.79896	
	320	1	1	66.65606		95.39018		20.42414	
	321	1	1	66.18132		94.48930		20.89603	
	322	1	1	67.10877		93.87103		20.76481	
	323	1	1	67.74992		93.43650		21.57707	
	324	1	1	67.65282		94.48939		21.95344	
	325	1	1	68.55450		95.15595		22.00158	
	326	1	1	68.43198		95.52356		23.05490	
	327	1	1	67.51095		95.71599		22.44309	
	328	1	1	67.81804		96.74446		22.77110	
	329	1	1	67.37655		97.15167		23.71920	
	330	1	1	67.56917		97.59214		24.73337	
	331	1	1	66.66751		96.92406		24.71527	
	332	1	1	66.37029		96.05323		25.35791	
	333	1	1	65.50218		95.38889		25.61223	
	334	1	1	65.09653		95.99150		26.46778	
	335	1	1	65.69048		96.93480		26.33721	
	336	1	1	66.20392		97.31567		27.25969	
	337	1	1	65.65364		97.31633		28.23787	
	338	1	1	65.76162		96.68116		29.15686	
	339	1	1	66.79915		96.38829		28.84476	
	340	1	1	67.73526		96.06556		29.37315	
	341	1	1	68.60890		96.76946		29.34284	
	342	1	1	68.40306		96.42258		28.29548	
	343	1	1	68.45516		97.30888		27.60890	
	344	1	1	68.89306		98.22368		27.12824	
	345	1	1	68.28485		98.13100		26.18955	
	346	1	1	67.44591		98.50078		25.54218	
	347	1	1	66.43065		98.97171		25.62647	
	348	1	1	66.15189		99.49619		24.67418	
	349	1	1	65.21957		98.89971		24.86027	
	350	1	1	64.15198		98.88250		25.20611	
	351	1	1	64.71422		98.96487		26.17396	
	352	1	1	64.48019		0.01931		25.86896	
	353	1	1	65.20092		99.98337		26.72856	
	354	1	1	65.85531		99.63994		27.57323	
	355	1	1	65.02269		0.14181		28.13406	
	356	1	1	65.60196		99.67373		28.97370	
	357	1	1	66.47348		99.50483		29.66041	
	358	1	1	67.17108		98.74995		30.11114	
	359	1	1	67.87582		99.12686		30.89913	
	360	1	1	68.01724		0.22911		30.74200	
	361	1	1	67.53142		0.42129		29.74867	
	362	1	1	67.39278		1.52471		29.90003	
	363	1	1	67.79097		1.51331		30.94930	
	364	1	1	67.00832		2.31116		30.84662	
	365	1	1	67.12760		3.36446		31.21540	
	366	1	1	66.08041		3.76499		31.26642	
	367	1	1	65.22684		3.11415		31.59427	
	368	1	1	65.93758		3.47649		32.38371	
	369	1	1	65.66856		3.37508		33.46860	
	370	1	1	65.22297		4.28254		33.95605	
	371	1	1	64.39903		4.00108		34.66426	
	372	1	1	64.36828		2.93788		34.30607	
	373	1	1	63.60445		2.12208		34.40944	
	374	1	1	63.15660		2.87523		33.70813	
	375	1	1	62.31192		2.52095		33.05956	
	376	1	1	62.92414		3.10297		32.32059	
	377	1	1	63.18128		2.08523		31.92345	
	378	1	1	63.46131		2.90993		31.21557	
	379	1	1	64.10005		3.82754		31.31382	
	380	1	1	65.01455		4.47309		31.39510	
	381	1	1	65.37765		5.37467		31.95630	
	382	1	1	64.71815		4.68016		32.54142	
	383	1	1	64.85131		5.63586		33.11462	
	384	1	1	65.85122		5.19470		33.36998	
	385	1	1	66.00230		5.69775		34.36182	
	386	1	1	65.67148		5.78821		35.43048	
	387	1	1	64.57845		5.58236		35.28032	
	388	1	1	63.74574		4.84416		35.42629	
	389	1	1	63.07348		3.99020		35.14618	
	390	1	1	63.58475		3.85571		36.13621	
	391	1	1	63.44039		4.17305		37.20304	
	392	1	1	62.40996		4.36574		37.60395	
	393	1	1	62.69828		5.43507		37.78574	
	394	1	1	63.61393		5.30213		38.42101	
	395	1	1	63.75767		6.15679		39.13414	
	396	1	1	64.59653		6.19106		39.87897	
	397	1	1	65.13626		5.97667		40.83938	
	398	1	1	65.85574		5.41474		40.18652	
	399	1	1	65.68412		4.75784		41.08021	
	400	1	1	65.41775		4.16151		41.99294	
	401	1	2	65.02104		4.07362		43.03914	
	402	1	2	65.66694		4.07846		43.95698	
	403	1	2	66.51138		4.01359		43.22053	
	404	1	2	67.55917		3.88051		42.84097	
	405	1	2	68.40938		3.29246		43.27799	
	406	1	2	68.17364		2.20116		43.39263	
	407	1	2	67.35397		1.75675		42.76790	
	408	1	2	68.32824		1.49229		42.27749	
	409	1	2	67.79554		0.67401		41.72405	
	410	1	2	68.86226		0.36706		41.89000	
	411	1	2	69.60904		99.78413		41.28821	
	412	1	2	68.91977		0.05527		40.44498	
	413	1	2	69.30683		99.02919		40.20627	
	414	1	2	69.26530		97.97725		40.59532	
	415	1	2	69.88282		97.73974		41.50190	
	416	1	2	69.16419		96.94618		41.83875	
	417	1	2	68.96698		96.47466		42.83797	
	418	1	2	69.40497		95.80104		42.05437	
	419	1	2	69.59849		95.08736		41.21005	
	420	1	2	68.47845		95.03778		41.15822	
	421	1	2	68.28778		94.49682		42.12293	
	422	1	2	68.12962		94.87856		43.16644	
	423	1	2	68.08483		94.26870		44.10756	
	424	1	2	68.85634		94.47398		44.89641	
	425	1	2	69.69392		93.96449		44.35006	
	426	1	2	70.63899		94.00507		44.95408	
	427	1	2	71.58596		94.60363		44.88617	
	428	1	2	72.47734		94.42856		44.22705	
	429	1	2	72.79696		93.60135		44.91497	
	430	1	2	72.46447		92.91049		45.73460	
	431	1	2	71.99754		93.84775		46.13854	
	432	1	2	72.95905		94.33236		46.45524	
	433	1	2	73.32552		94.78633		45.49646	
	434	1	2	73.93398		95.63011		45.91771	
	435	1	2	74.22607		96.65869		45.57659	
	436	1	2	74.16792		97.76577		45.75164	
	437	1	2	73.65540		97.75588		44.75321	
	438	1	2	72.73773		98.40132		44.72251	
	439	1	2	72.32470		98.81087		43.76265	
	440	1	2	71.75556		98.90287		42.79971	
	441	1	2	71.24358		98.45779		41.90560	
	442	1	2	70.88573		97.47629		42.31578	
	443	1	2	71.74643		96.86888		41.92861	
	444	1	2	71.07162		96.82686		41.03278	
	445	1	2	70.63814		95.79287		41.08386	
	446	1	2	71.64015		95.52166		40.65719	
	447	1	2	72.37908		94.85395		41.17468	
	448	1	2	72.04145		95.14207		42.20552	
	449	1	2	71.95900		96.00562		42.91766	
	450	1	2	70.88093		96.29566		43.03292	
	451	1	2	71.43113		96.50717		43.98801	
	452	1	2	71.50549		97.51852		44.46893	
	453	1	2	70.66724		98.25560		44.58599	
	454	1	2	70.95565		98.02322		45.64545	
	455	1	2	71.92100		97.62041		46.05225	
	456	1	2	71.66849		98.44545		46.77002	
	457	1	2	71.72937		99.46255		47.24061	
	458	1	2	72.07322		99.80048		46.22710	
	459	1	2	72.24625		99.62276		45.13251	
	460	1	2	71.33702		99.75382		44.48770	
	461	1	2	71.75278		0.78901		44.61088	
	462	1	2	71.52790		1.29907		43.63676	
	463	1	2	71.88766		0.87336		42.66260	
	464	1	2	72.33606		1.13164		41.66667	
	465	1	2	72.82255		0.30799		42.25367	
	466	1	2	72.14720		99.76692		41.53898	
	467	1	2	72.76787		99.17716		40.81331	
	468	1	2	72.60858		98.68003		39.81975	
	469	1	2	71.81306		99.46856		39.74893	
	470	1	2	71.43474		98.68538		39.03961	
	471	1	2	70.47191		98.28054		38.62885	
	472	1	2	70.07579		98.37959		39.67428	
	473	1	2	70.52016		99.24046		40.24092	
	474	1	2	71.04019		0.07523		40.78164	
	475	1	2	70.14389		0.73718		40.91627	
	476	1	2	70.85928		0.72027		41.78089	
	477	1	2	70.92932		0.08090		42.70065	
	478	1	2	70.01116		0.24670		43.32445	
	479	1	2	69.38751		99.72298		44.09674	
	480	1	2	69.75665		0.71674		44.46529	
	481	1	2	70.12232		1.73127		44.77619	
	482	1	2	69.82201		1.98190		45.82816	
	483	1	2	70.57436		1.35928		46.38129	
	484	1	2	70.97545		2.36226		46.07666	
	485	1	2	71.51010		3.09280		46.74007	
	486	1	2	71.38534		3.80453		47.59886	
	487	1	2	70.63316		4.43405		47.05336	
	488	1	2	69.58049		4.61468		46.70851	
	489	1	2	69.09905		4.04108		47.54448	
	490	1	2	69.96610		4.34144		48.19074	
	491	1	2	70.34452		5.05381		48.97111	
	492	1	2	70.86370		4.05908		48.94631	
	493	1	2	71.93231		4.31279		48.71532	
	494	1	2	72.02082		4.97730		47.81519	
	495	1	2	72.55695		4.03404		47.52797	
	496	1	2	72.72954		3.46028		48.47700	
	497	1	2	72.74550		2.40051		48.10782	
	498	1	2	73.36389		1.79841		48.82525	
	499	1	2	73.58273		1.28214		49.79747	
	500	1	2	72.63092		1.05183		49.24915	
	501	1	2	71.89966		1.38493		50.03270	
	502	1	2	70.87177		1.59082		50.43358	
	503	1	2	70.37890		0.97564		49.63465	
	504	1	2	71.22790		0.60445		49.00136	
	505	1	2	71.98468		99.83439		49.30788	
	506	1	2	73.07695		99.85181		49.56533	
	507	1	2	73.77458		0.20977		50.36834	
	508	1	2	73.06462		0.43575		51.20771	
	509	1	2	73.21503		99.36827		51.51995	
	510	1	2	74.06653		99.10136		52.20064	
	511	1	2	74.75358		98.21438		52.17105	
	512	1	2	74.09563		97.77848		52.96901	
	513	1	2	73.17687		98.40042		52.79953	
	514	1	2	72.50921		97.68989		53.35543	
	515	1	2	71.65942		98.23781		53.84255	
	516	1	2	72.13728		99.13049		54.32672	
	517	1	2	71.90937		98.30806		55.05564	
	518	1	2	71.12979		97.93255		55.77041	
	519	1	2	70.45967		97.43326		55.02122	
	520	1	2	70.63443		96.69797		55.85095	
	521	1	2	70.40509		96.49317		56.93035	
	522	1	2	71.11885		97.35913		56.91300	
	523	1	2	70.87627		98.40747		57.23204	
	524	1	2	70.24493		99.32973		57.33450	
	525	1	2	70.80089		99.23122		56.36452	
	526	1	2	71.71814		99.43801		56.97733	
	527	1	2	72.81490		99.22820		57.09021	
	528	1	2	72.54899		99.54281		56.04620	
	529	1	2	72.56000		0.58095		56.47258	
	530	1	2	71.87199		1.01663		55.70026	
	531	1	2	71.10526		1.71310		56.13233	
	532	1	2	70.28174		0.96210		56.00018	
	533	1	2	69.49631		0.78484		55.21831	
	534	1	2	69.84700		99.71886		55.23696	
	535	1	2	68.83443		99.90803		54.79137	
	536	1	2	68.82144		0.10249		55.89665	
	537	1	2	69.33445		0.50663		56.80942	
	538	1	2	69.67752		0.93491		57.78846	
	539	1	2	68.77555		1.59464		57.68426	
	540	1	2	68.65727		2.70618		57.58356	
	541	1	2	68.94219		2.81043		56.50300	
	542	1	2	68.89833		3.85098		56.92131	
	543	1	2	69.79143		4.14396		56.30798	
	544	1	2	70.25488		5.12080		56.60905	
	545	1	2	70.51438		4.35295		57.38540	
	546	1	2	70.93304		5.14022		58.06700	
	547	1	2	71.07204		6.13859		57.57346	
	548	1	2	71.51323		5.94565		56.55967	
	549	1	2	71.93123		6.00186		55.51960	
	550	1	2	70.84113		5.75663		55.62543	
	551	1	2	71.28937		5.83032		54.59912	
	552	1	2	71.32238		6.76390		53.97704	
	553	1	2	71.69475		7.15849		52.99455	
	554	1	2	71.75251		8.12146		52.42095	
	555	1	2	71.31267		8.47875		53.38973	
	556	1	2	70.42657		8.88680		52.83478	
	557	1	2	71.17828		9.69166		52.61851	
	558	1	2	72.20257		9.34329		52.32000	
	559	1	2	72.85383		10.06214		52.88459	
	560	1	2	73.78388		9.47538		52.66017	
	561	1	2	74.12401		10.20185		51.87518	
	562	1	2	73.13668		10.17003		51.34243	
	563	1	2	73.55926		9.13063		51.36921	
	564	1	2	73.56971		8.32751		50.58528	
	565	1	2	73.09459		7.90064		51.50816	
	566	1	2	73.87516		7.16571		51.17612	
	567	1	2	73.87670		6.05561		51.01086	
	568	1	2	73.97844		6.07236		49.89326	
	569	1	2	72.93657		5.91597		50.28015	
	570	1	2	73.52716		4.97803		50.10375	
	571	1	2	73.45630		3.87775		49.89392	
	572	1	2	73.90259		3.66445		50.90138	
	573	1	2	74.23594		2.94297		50.10892	
	574	1	2	73.90822		2.80545		49.04434	
	575	1	2	74.06304		3.53395		48.20472	
	576	1	2	75.01828		3.20553		48.69389	
	577	1	2	75.48156		4.08119		49.22138	
	578	1	2	75.46946		4.85385		50.03532	
	579	1	2	74.71096		5.00446		50.84873	
	580	1	2	75.54302		5.64159		51.25045	
	581	1	2	75.33580		6.28980		52.14294	
	582	1	2	74.39249		5.77958		52.47382	
	583	1	2	75.09961		4.90801		52.47243	
	584	1	2	75.52958		5.24957		53.45126	
	585	1	2	76.24006		4.84025		52.68488	
	586	1	2	75.92227		3.84399		53.09247	
	587	1	2	75.30252		2.91613		52.97150	
	588	1	2	75.61761		1.86653		53.21377	
	589	1	2	75.41977		1.52277		52.16385	
	590	1	2	75.01277		1.17183		51.17853	
	591	1	2	74.72519		1.01601		50.10491	
	592	1	2	74.58865		0.75011		49.02311	
	593	1	2	74.79477		1.23558		48.03241	
	594	1	2	74.22703		2.15660		47.73401	
	595	1	2	75.02459		1.92965		46.97768	
	596	1	2	75.63015		2.60656		46.31833	
	597	1	2	76.13241		3.55389		45.98677	
	598	1	2	75.77573		3.28233		44.95784	
	599	1	2	75.80806		2.73392		43.97915	
	600	1	2	76.17121		3.62304		43.39844	
	601	1	2	76.20911		4.10636		42.38621	
	602	1	2	75.66917		3.24485		41.91090	
	603	1	2	75.60296		2.15624		41.64597	
	604	1	2	75.64494		1.78004		40.58939	
	605	1	2	76.64813		2.28117		40.63550	
	606	1	2	77.27560		1.38015		40.86809	
	607	1	2	78.07771		1.55888		41.63250	
	608	1	2	77.18017		2.23272		41.63413	
	609	1	2	76.54097		1.36337		41.94284	
	610	1	2	76.98223		0.80826		42.81278	
	611	1	2	76.77190		1.42344		43.72764	
	612	1	2	76.61664		2.39049		43.17959	
	613	1	2	75.87625		1.59288		42.90520	
	614	1	2	74.81712		1.22739		42.83962	
	615	1	2	73.71080		1.19222		42.65396	
	616	1	2	74.14489		0.15906		42.71539	
	617	1	2	73.34842		99.51134		43.16897	
	618	1	2	73.23932		99.71182		44.26786	
	619	1	2	73.15847		0.69606		44.80115	
	620	1	2	73.37747		1.67171		44.29146	
	621	1	2	73.18739		0.76993		43.65091	
	622	1	2	74.24438		0.62838		44.00075	
	623	1	2	74.57934		0.02155		44.88348	
	624	1	2	75.39646		0.29336		45.60325	
	625	1	2	74.50694		99.72729		45.98792	
	626	1	2	74.63785		98.77967		46.57488	
	627	1	2	75.55969		99.41646		46.50902	
	628	1	2	75.96317		98.49398		47.00487	
	629	1	2	76.82871		97.78451		46.92029	
	630	1	2	77.32167		98.70143		47.33968	
	631	1	2	77.17859		99.15021		46.32096	
	632	1	2	77.95970		99.87303		45.96452	
	633	1	2	78.89271		0.48221		45.83023	
	634	1	2	79.06764		0.37749		46.93389	
	635	1	2	79.98465		0.81694		46.45888	
	636	1	2	79.19422		1.49445		46.87822	
	637	1	2	78.81877		2.06700		45.98891	
	638	1	2	79.85554		1.72151		45.73321	
	639	1	2	79.78048		1.76964		44.61441	
	640	1	2	80.02097		2.53679		43.83128	
	641	1	2	80.05169		1.70835		43.07471	
	642	1	2	79.14827		1.29647		42.55141	
	643	1	2	79.00672		0.87227		43.58081	
	644	1	2	78.24715		0.04654		43.55151	
	645	1	2	78.11356		98.99858		43.17259	
	646	1	2	77.34218		99.12912		42.36787	
	647	1	2	77.46540		98.54465		41.41768	
	648	1	2	77.77358		98.18564		40.39995	
	649	1	2	76.99798		98.99648		40.42508	
	650	1	2	76.70432		97.95514		40.12671	
	651	1	2	77.07293		96.92291		40.36808	
	652	1	2	77.34830		96.89687		41.45580	
	653	1	2	76.89818		97.19675		42.43922	
	654	1	2	76.03500		97.86220		42.17137	
	655	1	2	75.62608		97.06360		42.84566	
	656	1	2	75.69815		96.55461		43.84335	
	657	1	2	76.31383		95.74664		44.32060	
	658	1	2	76.97511		95.83875		45.22275	
	659	1	2	76.32167		95.07855		45.72750	
	660	1	2	76.79202		94.69656		46.67222	
	661	1	2	75.75477		94.35180		46.41747	
	662	1	2	74.66941		94.63739		46.42675	
	663	1	2	73.95287		94.77095		47.28020	
	664	1	2	73.86143		95.07522		48.35663	
	665	1	2	73.86045		93.97257		48.14735	
	666	1	2	74.03758		93.22372		47.33034	
	667	1	2	72.97250		93.07618		47.65203	
	668	1	2	73.70107		92.24390		47.84213	
	669	1	2	74.42215		92.18385		46.98418	
	670	1	2	73.34011		92.25146		46.69390	
	671	1	2	72.64954		91.49906		46.22843	
	672	1	2	71.55952		91.57043		46.48612	
	673	1	2	72.08579		92.46933		46.90404	
	674	1	2	71.00052		92.36572		47.17071	
	675	1	2	70.95555		93.48539		47.23356	
	676	1	2	70.34951		94.08939		47.95988	
	677	1	2	70.46971		94.80521		48.81593	
	678	1	2	70.04511		95.69357		48.27725	
	679	1	2	69.37287		96.57205		48.46707	
	680	1	2	68.61329		96.15353		49.17948	
	681	1	2	67.74705		96.75574		48.79658	
	682	1	2	68.58012		97.47439		49.01834	
	683	1	2	68.77448		98.44047		48.48117	
	684	1	2	67.82394		98.40270		47.88560	
	685	1	2	67.86058		99.34245		47.27309	
	686	1	2	68.89858		98.97645		47.49277	
	687	1	2	69.35965		99.75315		46.82659	
	688	1	2	69.62409		99.07857		45.96947	
	689	1	2	68.55095		99.13298		45.64533	
	690	1	2	68.46327		0.24557		45.76404	
	691	1	2	68.46187		0.75781		44.76541	
	692	1	2	67.54553		0.15504		44.52746	
	693	1	2	67.06074		0.04907		45.53413	
	694	1	2	66.84558		99.00051		45.87161	
	695	1	2	66.81508		98.78004		44.77156	
	696	1	2	66.45621		97.71667		44.78127	
	697	1	2	66.30229		97.71069		45.89299	
	698	1	2	65.64900		98.37547		46.51823	
	699	1	2	65.60049		97.53452		47.25992	
	700	1	2	66.39099		98.23599		47.63767	
	701	1	2	66.66391		99.32181		47.71615	
	702	1	2	65.71113		99.84872		47.98859	
	703	1	2	65.07000		0.35520		48.75806	
	704	1	2	65.32802		99.26903		48.87342	
	705	1	2	65.48132		99.31896		49.98412	
	706	1	2	66.38116		98.97523		49.40810	
	707	1	2	66.87534		98.17735		50.02359	
	708	1	2	66.72697		97.62278		49.05918	
	709	1	2	65.91116		97.33874		48.34264	
	710	1	2	65.80488		96.75328		49.29426	
	711	1	2	66.68735		96.07697		49.44759	
	712	1	2	67.65796		95.51472		49.48540	
	713	1	2	67.71745		94.53820		48.93539	
	714	1	2	67.51835		93.70858		49.66458	
	715	1	2	66.47132		93.32500		49.79205	
	716	1	2	66.77345		93.11561		48.73161	
	717	1	2	66.55130		92.07409		48.37731	
	718	1	2	66.01115		91.76428		47.44355	
	719	1	2	66.53204		90.79097		47.64597	
	720	1	2	67.49104		90.76942		47.06331	
	721	1	2	68.05462		90.77597		48.03387	
	722	1	2	68.88284		90.75338		48.79096	
	723	1	2	69.77719		91.30345		49.18746	
	724	1	2	70.88826		91.26750		49.03296	
	725	1	2	70.78737		90.25651		49.50979	
	726	1	2	71.69614		89.89183		48.96135	
	727	1	2	70.73433		89.68244		48.42215	
	728	1	2	70.08692		88.90513		47.93605	
	729	1	2	69.63501		88.16206		48.64547	
	730	1	2	69.44932		87.13526		48.23212	
	731	1	2	69.12016		87.92185		47.50234	