#-----------------------------------------------------------------------------------           
# NANOPOLY - POLYMER NANOCOMPOSITE STRUCTURAL DATA FILE                                        
#-----------------------------------------------------------------------------------           
# FILENAME:  test_structure2.in                                                                  
# DATE: 2021-09-19                                                                                
#-----------------------------------------------------------------------------------           
                                                                                               
24000 atoms                                                             
23970 bonds                                                             
                                                                                               
2 atom types                                      
1 bond types                                            
                                                                                    
0.0000 10.0000 xlo xhi            
0.0000 10.0000 ylo yhi            
0.0000 10.0000 zlo zhi            
                                                                                    
                                                                                    
# Types have been converted numerically as follows:                                 
# 1 a
# 2 b
                                                                                    
Masses                                                                              
                                                                                    
1	1.0
2	0.5

Atoms                                                                               

	1	1	1	0.72748		5.99499		1.59098	
	2	1	1	0.17136		6.10509		0.62234	
	3	1	1	0.36649		5.01167		0.46110	
	4	1	1	0.27904		4.09672		1.10519	
	5	1	1	9.49007		3.98280		0.31513	
	6	1	1	0.43932		3.47920		0.63909	
	7	1	1	9.96331		4.10703		1.43839	
	8	1	1	9.97550		3.06079		1.03233	
	9	1	1	0.73155		2.31302		1.39131	
	10	1	1	0.57199		2.16361		2.49216	
	11	1	1	0.02076		1.40425		3.10792	
	12	1	1	9.23050		0.93389		2.46458	
	13	1	1	8.78337		0.06065		1.91944	
	14	1	1	8.73595		9.31777		2.75940	
	15	1	1	8.81065		0.32821		2.27661	
	16	1	1	9.68890		1.02678		2.29460	
	17	1	1	0.48620		1.73105		1.93688	
	18	1	1	0.39419		0.84759		2.62295	
	19	1	1	1.13891		1.39577		3.25900	
	20	1	1	0.57249		0.58583		2.72719	
	21	1	1	0.28756		9.61917		2.23319	
	22	1	1	9.46974		0.37367		2.37993	
	23	1	1	0.22749		0.22492		1.56548	
	24	1	1	9.17919		9.82404		1.56621	
	25	1	1	8.55300		9.01329		2.02471	
	26	1	1	8.29389		9.41820		3.03889	
	27	1	1	8.71949		8.38976		3.18316	
	28	1	1	9.28155		7.44043		2.97698	
	29	1	1	9.50008		6.39131		3.31050	
	30	1	1	9.00402		7.23950		2.76816	
	31	1	1	8.81386		7.55541		1.70812	
	32	1	1	8.78351		7.99668		0.67661	
	33	1	1	8.97597		8.95163		0.11922	
	34	1	1	8.28055		8.96575		9.23841	
	35	1	1	7.24609		9.06837		9.66151	
	36	1	1	8.06384		9.82204		9.81285	
	37	1	1	8.78997		9.42607		0.57153	
	38	1	1	9.08231		0.50944		0.59352	
	39	1	1	0.15170		0.27117		0.83702	
	40	1	1	0.38708		1.33798		0.57981	
	41	1	1	9.41445		0.78848		0.47169	
	42	1	1	8.61724		0.63041		1.24572	
	43	1	1	8.70580		9.60811		1.70036	
	44	1	1	9.14892		9.93161		0.72126	
	45	1	1	9.52240		0.98635		0.63367	
	46	1	1	9.44663		0.08052		9.97536	
	47	1	1	8.97370		0.76507		9.22211	
	48	1	1	9.86401		1.43587		9.35256	
	49	1	1	0.38160		2.40210		9.11141	
	50	1	1	0.24217		2.34323		7.99932	
	51	1	1	1.30262		2.70484		7.93333	
	52	1	1	0.60317		1.84392		7.76233	
	53	1	1	0.15116		0.86671		7.44549	
	54	1	1	9.70763		1.65797		8.10641	
	55	1	1	0.56202		0.98099		7.83928	
	56	1	1	9.49132		0.91491		8.16926	
	57	1	1	9.40687		1.90939		8.68260	
	58	1	1	9.54350		0.85058		8.33633	
	59	1	1	0.21002		1.74536		8.21487	
	60	1	1	0.27623		0.82772		8.85768	
	61	1	1	0.29023		0.10048		8.00295	
	62	1	1	9.87314		1.14013		8.07231	
	63	1	1	0.31390		1.81872		8.85005	
	64	1	1	9.95085		2.06337		9.88349	
	65	1	1	9.32233		1.83845		8.98126	
	66	1	1	0.30339		1.31928		9.14749	
	67	1	1	9.77902		0.36754		9.42835	
	68	1	1	9.02776		9.73347		8.88687	
	69	1	1	0.05601		9.46041		9.24435	
	70	1	1	9.26047		9.24779		8.48175	
	71	1	1	9.09993		0.24557		8.96991	
	72	1	1	9.59132		0.38442		9.96936	
	73	1	1	0.67745		0.62727		0.11424	
	74	1	1	0.94213		9.92000		0.94453	
	75	1	1	0.22514		0.66231		1.38562	
	76	1	1	0.12873		0.91203		2.47557	
	77	1	1	9.06846		0.59324		2.65955	
	78	1	1	9.22640		1.32527		3.49551	
	79	1	1	0.20164		0.77976		3.60033	
	80	1	1	0.29056		0.51228		2.51396	
	81	1	1	9.81476		0.08066		1.59365	
	82	1	1	0.41399		9.14924		1.77534	
	83	1	1	9.54497		9.84965		1.65764	
	84	1	1	8.87128		0.71886		1.88185	
	85	1	1	8.65533		1.29625		0.94396	
	86	1	1	7.91573		0.63738		1.47172	
	87	1	1	9.02906		0.72854		1.58052	
	88	1	1	9.97561		0.28196		1.17524	
	89	1	1	9.32515		1.15348		0.89774	
	90	1	1	9.71314		2.19891		1.02497	
	91	1	1	0.28315		1.91309		0.10137	
	92	1	1	9.98686		1.36717		1.03615	
	93	1	1	9.64938		1.33249		2.10599	
	94	1	1	0.59656		0.75653		2.28143	
	95	1	1	0.59704		0.26707		1.27145	
	96	1	1	0.76706		9.55349		2.12089	
	97	1	1	1.23176		8.96482		2.95586	
	98	1	1	0.75713		9.77449		2.34038	
	99	1	1	9.67036		9.58214		2.54433	
	100	1	1	9.68956		9.86123		1.45741	
	101	1	1	9.55827		8.81315		1.83682	
	102	1	1	9.07186		8.02867		1.19836	
	103	1	1	8.36833		8.52260		1.91996	
	104	1	1	9.27288		9.06579		2.30256	
	105	1	1	9.44636		9.25411		3.39530	
	106	1	1	9.95112		8.45469		2.79051	
	107	1	1	0.01153		8.40672		1.67082	
	108	1	1	0.65906		9.08354		1.05253	
	109	1	1	9.96609		8.30853		1.47540	
	110	1	1	0.78478		8.52288		0.73821	
	111	1	1	1.79369		8.69765		0.27864	
	112	1	1	2.22962		9.72284		0.14225	
	113	1	1	1.94539		0.59446		0.78966	
	114	1	1	1.84712		9.62822		0.22719	
	115	1	1	1.69622		9.21882		1.26124	
	116	1	1	1.94258		0.29660		1.06800	
	117	1	1	2.10362		0.09949		9.97491	
	118	1	1	1.26167		0.77776		9.67370	
	119	1	1	0.58446		9.93959		9.35983	
	120	1	1	1.17404		9.31017		8.64159	
	121	1	1	0.97027		8.57458		9.46441	
	122	1	1	2.04886		8.77698		9.69964	
	123	1	1	2.19123		9.11422		0.76061	
	124	1	1	1.67596		9.25921		1.74708	
	125	1	1	2.42010		9.42414		0.92324	
	126	1	1	2.90023		8.53308		0.43835	
	127	1	1	3.05906		7.69839		1.17164	
	128	1	1	2.37243		8.51723		0.82860	
	129	1	1	1.93002		9.14648		0.01131	
	130	1	1	1.31813		9.59113		0.84048	
	131	1	1	1.35369		8.47095		0.90030	
	132	1	1	0.39070		8.91141		1.27218	
	133	1	1	1.19484		9.49473		1.79443	
	134	1	1	0.80082		0.41026		1.27848	
	135	1	1	1.23776		1.42265		1.06921	
	136	1	1	0.95720		0.53444		0.44310	
	137	1	1	1.30890		0.53591		9.37729	
	138	1	1	2.35183		0.94835		9.33448	
	139	1	1	2.06579		1.85908		9.92474	
	140	1	1	2.73164		0.97481		0.11014	
	141	1	1	2.67958		2.07355		9.88718	
	142	1	1	2.41663		1.35098		9.06963	
	143	1	1	1.46214		1.75314		9.50190	
	144	1	1	0.72955		1.69195		8.65383	
	145	1	1	9.90367		1.12886		9.16422	
	146	1	1	9.58551		0.62405		8.21364	
	147	1	1	0.54572		1.19347		8.32950	
	148	1	1	1.57158		1.43752		8.71381	
	149	1	1	0.65272		1.06435		8.18838	
	150	1	1	0.54150		0.50980		9.15779	
	151	1	1	1.41491		0.70930		8.48176	
	152	1	1	0.32966		0.71267		8.76789	
	153	1	1	0.30773		1.83451		8.79351	
	154	1	1	0.16772		0.79668		9.19720	
	155	1	1	9.97498		1.87790		9.42846	
	156	1	1	8.88156		1.62557		9.40863	
	157	1	1	8.16349		1.87693		0.23376	
	158	1	1	9.10568		1.69659		9.65117	
	159	1	1	8.93590		1.75130		0.75924	
	160	1	1	9.58685		1.37360		1.59186	
	161	1	1	9.88977		0.38403		2.02618	
	162	1	1	9.66704		9.37415		2.46229	
	163	1	1	0.08990		9.81707		1.52173	
	164	1	1	9.36746		0.34208		2.20150	
	165	1	1	0.44995		0.63440		2.15246	
	166	1	1	0.45999		9.63387		1.64404	
	167	1	1	0.59419		9.41559		0.55134	
	168	1	1	1.28442		8.53340		0.48077	
	169	1	1	0.99211		7.53953		0.91253	
	170	1	1	1.12567		7.10294		9.88725	
	171	1	1	1.00260		8.13559		0.30933	
	172	1	1	0.40080		8.65136		1.10397	
	173	1	1	0.02587		7.60646		1.26909	
	174	1	1	0.21373		8.67409		0.97836	
	175	1	1	9.95820		8.98780		9.93149	
	176	1	1	0.45149		8.68150		0.89195	
	177	1	1	0.44227		9.05643		1.94978	
	178	1	1	0.72938		8.03439		1.58555	
	179	1	1	0.17918		8.00299		2.56327	
	180	1	1	0.78970		7.86743		1.63132	
	181	1	1	0.10258		8.41782		2.32744	
	182	1	1	9.94213		8.01477		1.29233	
	183	1	1	8.83523		8.08166		1.46540	
	184	1	1	9.89367		7.71559		1.53862	
	185	1	1	9.59818		8.78305		1.35738	
	186	1	1	0.19926		9.47289		2.00736	
	187	1	1	0.98357		8.78571		2.42243	
	188	1	1	1.08307		8.90878		1.31130	
	189	1	1	1.93843		9.42095		1.82675	
	190	1	1	1.89059		8.74644		0.93099	
	191	1	1	1.18340		9.41843		0.37606	
	192	1	1	0.64266		0.30268		0.80659	
	193	1	1	0.46717		9.39042		0.17680	
	194	1	1	0.09304		8.47536		0.70815	
	195	1	1	9.79188		9.45170		0.24372	
	196	1	1	9.57354		9.29050		9.15468	
	197	1	1	9.16887		9.99731		8.38247	
	198	1	1	0.18744		9.71863		8.76259	
	199	1	1	9.54222		8.92780		8.29576	
	200	1	1	9.94531		9.94598		8.54171	
	201	1	1	1.00423		9.57896		8.48131	
	202	1	1	0.27755		9.60174		7.62628	
	203	1	1	9.97065		8.60335		7.21560	
	204	1	1	9.44197		7.82903		7.83251	
	205	1	1	9.88312		8.49831		8.61806	
	206	1	1	0.51873		9.28959		9.09714	
	207	1	1	1.24266		8.62007		8.56113	
	208	1	1	0.16643		8.39680		8.78812	
	209	1	1	0.73675		8.88346		9.62331	
	210	1	1	0.15568		8.46528		0.48768	
	211	1	1	0.46130		7.54030		1.04505	
	212	1	1	9.96671		7.81160		0.07478	
	213	1	1	9.21031		6.98841		9.97544	
	214	1	1	9.78301		7.90503		9.67302	
	215	1	1	0.26692		8.79085		0.16374	
	216	1	1	0.12078		9.13064		1.22338	
	217	1	1	0.71323		8.87012		0.30644	
	218	1	1	1.70836		9.17225		9.88444	
	219	1	1	0.67672		9.60938		9.81904	
	220	1	1	1.51606		9.45794		0.54857	
	221	1	1	0.45645		9.82556		0.50691	
	222	1	1	9.38810		9.64737		0.80108	
	223	1	1	8.63084		9.85282		1.60357	
	224	1	1	8.66087		9.81523		0.48226	
	225	1	1	8.10930		0.68098		0.02851	
	226	1	1	7.26307		0.15163		0.54166	
	227	1	1	8.19044		0.73910		0.77515	
	228	1	1	8.45431		9.70511		1.12283	
	229	1	1	7.46312		9.27897		0.81365	
	230	1	1	8.49032		9.73047		0.83935	
	231	1	1	9.53226		9.84628		1.24009	
	232	1	1	0.44099		0.49139		1.10711	
	233	1	1	9.61227		0.87494		0.45461	
	234	1	1	8.87513		0.04103		0.59907	
	235	1	1	9.30673		0.84319		9.94340	
	236	1	1	0.23101		1.16355		0.49361	
	237	1	1	0.94613		0.41968		0.05213	
	238	1	1	9.88967		0.25539		0.39351	
	239	1	1	9.00539		0.06119		9.73021	
	240	1	1	8.79958		1.13086		0.00059	
	241	1	1	8.66568		0.02297		9.88105	
	242	1	1	9.36215		9.92714		9.00618	
	243	1	1	8.67921		0.52233		8.34363	
	244	1	1	9.45219		0.21784		7.58903	
	245	1	1	8.84062		9.63909		8.33109	
	246	1	1	9.44927		9.43209		9.25106	
	247	1	1	0.28518		9.76720		8.58127	
	248	1	1	0.47767		0.64372		7.90725	
	249	1	1	0.10697		0.84750		8.94682	
	250	1	1	9.50043		9.91485		8.79879	
	251	1	1	9.23985		9.64720		7.74044	
	252	1	1	8.45215		0.18550		8.33154	
	253	1	1	8.12278		0.44702		9.37210	
	254	1	1	8.57610		1.40296		9.74671	
	255	1	1	8.70830		0.84310		8.78300	
	256	1	1	8.01078		1.15955		9.60335	
	257	1	1	8.25358		0.18397		0.10230	
	258	1	1	8.81138		9.21158		0.04795	
	259	1	1	8.30176		0.07309		9.54028	
	260	1	1	9.10889		9.29365		9.56589	
	261	1	1	8.46019		8.38793		9.70188	
	262	1	1	8.82451		8.39214		8.64032	
	263	1	1	8.86728		9.20918		9.40861	
	264	1	1	9.55611		9.80456		0.06487	
	265	1	1	9.17775		9.97564		9.02217	
	266	1	1	8.28129		9.34836		8.77213	
	267	1	1	7.39186		9.15302		9.42819	
	268	1	1	7.65811		9.49108		0.46475	
	269	1	1	8.74830		9.70730		0.62092	
	270	1	1	8.10709		0.32872		9.94097	
	271	1	1	8.21326		9.35630		9.39072	
	272	1	1	7.65338		9.90041		0.19703	
	273	1	1	6.77916		9.38529		0.67665	
	274	1	1	6.98570		8.53934		9.96858	
	275	1	1	7.62983		9.45386		9.87682	
	276	1	1	7.67923		0.56303		0.04091	
	277	1	1	8.49588		0.86838		0.74766	
	278	1	1	7.82976		0.14585		0.20555	
	279	1	1	8.65643		0.88406		0.02859	
	280	1	1	7.84835		0.64710		0.77055	
	281	1	1	7.18827		0.09116		1.48810	
	282	1	1	6.55185		9.66788		0.66624	
	283	1	1	7.31037		8.93781		0.27730	
	284	1	1	6.23722		8.60921		0.27514	
	285	1	1	6.90166		8.20166		9.46764	
	286	1	1	7.08468		9.28211		9.22521	
	287	1	1	7.63582		9.68244		0.11719	
	288	1	1	7.70135		9.66877		8.99685	
	289	1	1	8.07694		0.32957		8.17106	
	290	1	1	8.80070		0.23659		7.31831	
	291	1	1	7.70986		0.17865		7.06072	
	292	1	1	6.87020		0.44142		7.75755	
	293	1	1	7.12333		1.30113		8.43317	
	294	1	1	6.06760		0.99571		8.66076	
	295	1	1	5.81166		0.51807		9.64361	
	296	1	1	6.33342		1.41297		0.07555	
	297	1	1	7.35766		1.49892		0.52632	
	298	1	1	8.31169		1.31213		1.08720	
	299	1	1	8.90591		2.19226		1.45042	
	300	1	1	8.73820		2.57963		2.49035	
	301	1	1	9.42987		3.44944		2.64738	
	302	1	1	8.85136		2.68409		3.22980	
	303	1	1	8.74592		1.65210		2.80141	
	304	1	1	9.76292		1.58656		2.33123	
	305	1	1	0.66397		1.03489		1.95254	
	306	1	1	1.59589		1.22766		1.35756	
	307	1	1	0.53847		1.23032		0.98138	
	308	1	1	0.26977		0.35749		1.63378	
	309	1	1	0.53540		1.25887		1.02009	
	310	1	1	0.02909		1.04504		1.99865	
	311	1	1	9.86187		0.01950		1.57445	
	312	1	1	0.68077		0.60716		1.08080	
	313	1	1	0.51182		0.42389		2.17511	
	314	1	1	9.91130		1.12490		1.53667	
	315	1	1	0.44022		0.14434		1.67234	
	316	1	1	9.44218		9.78152		1.30912	
	317	1	1	9.96900		0.75474		1.12212	
	318	1	1	0.98102		0.85839		1.59616	
	319	1	1	0.35655		1.09206		0.69335	
	320	1	1	0.94340		0.88872		9.75852	
	321	1	1	1.50111		1.27428		8.86412	
	322	1	1	0.76288		1.61063		8.08853	
	323	1	1	1.74330		1.44484		8.60905	
	324	1	1	1.31653		2.47959		8.52649	
	325	1	1	2.00899		1.64766		8.22979	
	326	1	1	2.95150		2.16394		8.55348	
	327	1	1	2.02322		2.78611		8.44931	
	328	1	1	2.01466		2.13048		7.53842	
	329	1	1	1.50254		3.10958		7.73527	
	330	1	1	1.80247		2.47000		8.60741	
	331	1	1	1.23371		1.96189		9.43081	
	332	1	1	0.84794		2.19684		0.45825	
	333	1	1	1.26546		1.29755		0.98418	
	334	1	1	2.38382		1.38740		0.95527	
	335	1	1	1.34216		1.74399		0.73749	
	336	1	1	0.58107		1.70076		1.56121	
	337	1	1	1.41377		2.05965		0.89980	
	338	1	1	0.62180		2.74831		0.50207	
	339	1	1	0.05280		1.93481		1.02562	
	340	1	1	9.20626		1.57975		1.67135	
	341	1	1	9.20510		1.31329		2.76160	
	342	1	1	9.97360		0.95753		2.02506	
	343	1	1	0.04549		1.75967		1.24337	
	344	1	1	9.38740		1.78287		2.15223	
	345	1	1	9.45525		1.91845		1.04018	
	346	1	1	0.45220		1.47991		1.31116	
	347	1	1	1.02695		2.38018		1.65585	
	348	1	1	9.98623		2.79912		1.68782	
	349	1	1	9.03713		2.35885		1.28161	
	350	1	1	0.07313		1.93941		1.17953	
	351	1	1	0.62886		1.03676		1.54835	
	352	1	1	1.62942		0.78929		1.10419	
	353	1	1	1.89200		0.57696		0.03385	
	354	1	1	0.98502		1.08848		0.45263	
	355	1	1	9.95243		0.70843		0.23135	
	356	1	1	0.10860		0.82727		9.12630	
	357	1	1	9.93618		0.26422		0.08175	
	358	1	1	9.38143		0.68860		0.96028	
	359	1	1	8.57631		1.34228		0.53118	
	360	1	1	8.65364		1.74217		9.48535	
	361	1	1	9.06459		0.75896		9.83757	
	362	1	1	9.21639		1.57046		0.59788	
	363	1	1	0.11918		1.12572		1.09469	
	364	1	1	0.87529		1.90126		1.38879	
	365	1	1	0.31124		2.59470		0.71008	
	366	1	1	0.02468		2.57447		9.62513	
	367	1	1	0.53736		3.14309		8.80447	
	368	1	1	0.66315		2.57180		9.76230	
	369	1	1	0.36319		2.28067		0.80389	
	370	1	1	0.74730		1.73818		1.70822	
	371	1	1	1.19824		1.69002		2.73486	
	372	1	1	1.42196		1.40051		1.67383	
	373	1	1	1.39629		1.38136		0.55195	
	374	1	1	1.41144		2.07382		9.66882	
	375	1	1	1.44904		1.21914		8.94235	
	376	1	1	1.44363		1.39071		0.05149	
	377	1	1	0.83576		2.28427		0.35431	
	378	1	1	1.12677		3.35911		0.21402	
	379	1	1	0.72907		3.12029		9.19204	
	380	1	1	1.08802		2.18311		8.68956	
	381	1	1	1.58634		2.67712		7.81362	
	382	1	1	2.07141		2.84446		6.81544	
	383	1	1	2.76160		2.05216		7.20984	
	384	1	1	1.66952		1.95751		7.45077	
	385	1	1	0.74560		1.46191		7.85127	
	386	1	1	1.79502		1.07569		7.94716	
	387	1	1	1.45315		2.03049		7.46641	
	388	1	1	1.82865		1.96544		6.41075	
	389	1	1	1.68539		1.01948		6.99751	
	390	1	1	1.79485		9.90258		6.98293	
	391	1	1	2.38511		0.09535		7.91785	
	392	1	1	1.28930		0.25249		8.10267	
	393	1	1	1.11652		9.23110		8.53460	
	394	1	1	2.14088		9.56229		8.21737	
	395	1	1	3.25632		9.64572		8.30940	
	396	1	1	2.68317		9.84943		9.25261	
	397	1	1	3.03602		9.60006		0.28845	
	398	1	1	2.76002		0.67966		0.42236	
	399	1	1	2.14282		9.96378		1.02753	
	400	1	1	2.07835		9.40684		0.05527	
	401	1	2	2.56721		0.20045		0.68044	
	402	1	2	3.57867		9.74897		0.86147	
	403	1	2	4.47233		0.08865		1.44937	
	404	1	2	3.89695		9.24648		0.98105	
	405	1	2	4.49282		9.93444		1.63778	
	406	1	2	4.16164		0.20415		2.67567	
	407	1	2	3.84647		9.41633		1.94105	
	408	1	2	4.88470		9.02145		1.78040	
	409	1	2	5.46705		9.51801		2.60133	
	410	1	2	4.61497		9.68039		1.88913	
	411	1	2	5.28322		0.57659		1.78956	
	412	1	2	5.40820		9.56929		2.26849	
	413	1	2	5.00191		8.99443		1.39435	
	414	1	2	5.36229		9.89177		0.82466	
	415	1	2	6.41912		0.10370		1.13746	
	416	1	2	6.24823		0.36233		2.21614	
	417	1	2	7.26935		0.32763		1.75163	
	418	1	2	6.98267		1.40734		1.64354	
	419	1	2	6.56933		1.27383		2.67841	
	420	1	2	7.02549		1.09553		1.66857	
	421	1	2	6.57702		2.11272		1.82300	
	422	1	2	5.54975		2.15125		2.27343	
	423	1	2	4.50332		2.49803		2.06279	
	424	1	2	4.02405		2.43182		3.07549	
	425	1	2	3.76623		1.45434		2.58793	
	426	1	2	3.29440		1.71159		1.60261	
	427	1	2	4.25193		2.29244		1.67605	
	428	1	2	4.94419		2.92753		1.06197	
	429	1	2	4.45612		1.94658		0.81868	
	430	1	2	4.30503		2.94450		1.30958	
	431	1	2	4.43540		2.71630		2.40072	
	432	1	2	4.17024		3.79217		2.22229	
	433	1	2	3.96625		3.91284		1.12526	
	434	1	2	4.79386		3.59128		0.43875	
	435	1	2	3.98488		2.92544		0.03644	
	436	1	2	4.65796		2.16413		9.55997	
	437	1	2	5.23587		2.94360		8.99596	
	438	1	2	5.66679		3.89953		9.39615	
	439	1	2	6.49439		3.16162		9.56999	
	440	1	2	6.98522		2.18587		9.31186	
	441	1	2	6.24022		2.06575		0.14264	
	442	1	2	5.92612		1.81969		9.09362	
	443	1	2	6.28720		2.88225		9.10881	
	444	1	2	7.33330		3.15518		9.41018	
	445	1	2	6.53605		2.66143		8.79354	
	446	1	2	7.05566		1.72642		9.13326	
	447	1	2	6.72977		2.72692		9.52371	
	448	1	2	5.86757		2.23060		0.04324	
	449	1	2	6.32377		3.23140		0.26668	
	450	1	2	6.70957		3.79447		1.15761	
	451	1	2	5.98104		3.20507		1.77527	
	452	1	2	5.02282		3.65915		2.14306	
	453	1	2	4.42748		2.77825		1.78358	
	454	1	2	4.31486		2.43872		2.84738	
	455	1	2	4.48707		1.53865		2.19941	
	456	1	2	5.46264		2.03661		1.95454	
	457	1	2	6.07774		2.57226		1.18358	
	458	1	2	6.39127		1.50019		1.29319	
	459	1	2	6.07599		0.81328		2.12288	
	460	1	2	5.31237		0.00646		2.28285	
	461	1	2	5.19230		1.09161		2.54301	
	462	1	2	5.55187		0.52739		3.44413	
	463	1	2	4.71753		1.27208		3.53874	
	464	1	2	4.08255		2.19647		3.58307	
	465	1	2	4.80676		1.61378		2.95407	
	466	1	2	4.86578		0.53394		2.65389	
	467	1	2	4.21212		1.43290		2.80958	
	468	1	2	3.57022		2.28707		3.15310	
	469	1	2	3.32690		3.15064		2.47879	
	470	1	2	2.39171		2.77564		1.98438	
	471	1	2	2.55758		3.56714		1.20614	
	472	1	2	1.58262		3.22491		0.76799	
	473	1	2	2.18277		2.59587		0.05822	
	474	1	2	2.95778		1.80693		9.86696	
	475	1	2	3.54513		1.31033		9.04961	
	476	1	2	2.53530		0.83618		9.17239	
	477	1	2	3.20558		0.01546		8.80253	
	478	1	2	2.83224		9.63963		9.79199	
	479	1	2	3.35052		8.89786		0.45592	
	480	1	2	4.41160		8.67120		0.74295	
	481	1	2	4.09741		9.74331		0.63568	
	482	1	2	4.08450		9.25227		9.62655	
	483	1	2	4.99794		9.89737		9.53103	
	484	1	2	4.06480		0.26633		0.03380	
	485	1	2	3.10493		0.53206		0.55118	
	486	1	2	3.94728		1.19277		0.21420	
	487	1	2	3.33320		0.62324		0.96131	
	488	1	2	3.71840		9.78275		0.32504	
	489	1	2	3.65614		9.22737		9.35174	
	490	1	2	3.68709		0.21019		9.89282	
	491	1	2	4.68411		9.97091		9.43636	
	492	1	2	5.60769		0.39111		9.91604	
	493	1	2	6.02398		1.35385		9.51670	
	494	1	2	5.88649		2.42777		9.81242	
	495	1	2	6.35152		1.92041		8.92586	
	496	1	2	5.71086		1.69533		8.03226	
	497	1	2	4.89787		1.03974		8.44322	
	498	1	2	5.79623		1.64206		8.74287	
	499	1	2	6.01871		2.57080		9.33245	
	500	1	2	5.98681		2.36039		0.43442	
	501	1	2	5.51467		1.57030		9.79217	
	502	1	2	4.76072		0.73895		9.80053	
	503	1	2	3.77128		0.20920		9.80419	
	504	1	2	4.62736		0.12957		9.08278	
	505	1	2	4.18519		9.09803		9.09098	
	506	1	2	3.92260		0.03808		8.53691	
	507	1	2	3.84726		0.59588		9.50790	
	508	1	2	4.54148		1.33506		9.02694	
	509	1	2	4.80769		0.46798		8.36592	
	510	1	2	4.85651		0.94448		9.38091	
	511	1	2	4.08233		1.56832		9.90159	
	512	1	2	4.20498		1.24017		0.96785	
	513	1	2	5.07019		1.07733		1.66395	
	514	1	2	4.06670		0.89416		1.19585	
	515	1	2	4.69439		1.71910		1.62612	
	516	1	2	4.72588		2.78800		1.28538	
	517	1	2	4.25074		1.80821		1.55721	
	518	1	2	4.82739		1.09650		2.20574	
	519	1	2	4.43553		1.89429		2.89104	
	520	1	2	5.09172		1.48188		2.07926	
	521	1	2	4.79015		1.00798		1.10760	
	522	1	2	5.36599		0.06720		1.31493	
	523	1	2	4.48387		0.49127		1.86417	
	524	1	2	5.22453		1.32827		1.76170	
	525	1	2	4.72530		0.50977		1.17819	
	526	1	2	5.80733		0.30448		1.39432	
	527	1	2	4.87569		9.75501		1.09468	
	528	1	2	3.99901		9.06124		1.19351	
	529	1	2	3.00276		9.52629		1.41901	
	530	1	2	4.08201		9.55857		1.11271	
	531	1	2	5.19286		9.71868		1.11772	
	532	1	2	6.01499		0.19357		0.51919	
	533	1	2	5.82855		9.15700		0.90704	
	534	1	2	5.50361		8.60374		1.82789	
	535	1	2	6.38181		9.19507		2.20037	
	536	1	2	5.80643		9.62200		1.33647	
	537	1	2	5.77285		9.49872		0.22143	
	538	1	2	4.72505		9.87275		0.36928	
	539	1	2	4.84822		0.75912		9.69191	
	540	1	2	4.40225		9.95156		0.33113	
	541	1	2	5.22398		9.44470		0.90340	
	542	1	2	4.19374		9.05131		0.69486	
	543	1	2	3.95484		8.02101		1.07045	
	544	1	2	3.75676		8.27484		9.99529	
	545	1	2	4.43292		9.14382		0.21285	
	546	1	2	3.33289		9.36495		0.23921	
	547	1	2	3.18519		0.46082		0.04712	
	548	1	2	3.58457		0.94315		9.11572	
	549	1	2	4.24740		0.18976		9.61841	
	550	1	2	3.54268		9.73721		8.87127	
	551	1	2	4.34692		0.45464		8.55798	
	552	1	2	5.35350		0.19674		8.13378	
	553	1	2	5.73936		9.15871		8.31612	
	554	1	2	5.64055		9.87181		9.17716	
	555	1	2	5.05452		8.96052		9.46999	
	556	1	2	5.44328		8.33666		0.31811	
	557	1	2	5.33015		8.65819		1.38744	
	558	1	2	4.43309		8.26163		0.84184	
	559	1	2	4.86923		8.29774		1.87534	
	560	1	2	5.39348		7.77585		2.71940	
	561	1	2	5.29975		7.69297		1.60406	
	562	1	2	6.20172		7.03370		1.71118	
	563	1	2	7.04855		6.44725		2.15682	
	564	1	2	7.67242		5.73245		1.55724	
	565	1	2	7.07097		6.49401		0.99339	
	566	1	2	7.58975		7.27612		1.60887	
	567	1	2	8.56211		6.78952		1.88707	
	568	1	2	8.82311		5.79331		2.33326	
	569	1	2	8.79630		5.69056		1.21596	
	570	1	2	9.13697		4.62433		1.13396	
	571	1	2	8.82845		5.03382		0.13558	
	572	1	2	9.21131		4.16467		9.53754	
	573	1	2	8.32416		3.59108		9.91649	
	574	1	2	9.10930		4.33773		0.20926	
	575	1	2	8.09859		3.89761		0.41998	
	576	1	2	7.38821		4.05143		1.27516	
	577	1	2	8.46038		3.81611		1.50906	
	578	1	2	7.95738		2.96010		2.03238	
	579	1	2	7.78870		2.21374		1.21132	
	580	1	2	6.82078		2.14044		1.77472	
	581	1	2	7.85239		2.49586		2.03759	
	582	1	2	7.20929		3.28300		2.51349	
	583	1	2	6.62514		2.68871		1.76166	
	584	1	2	7.14349		2.91205		2.73176	
	585	1	2	6.68247		2.41162		1.83919	
	586	1	2	5.96544		2.74639		2.63509	
	587	1	2	6.06840		3.66821		2.00319	
	588	1	2	6.59871		4.15067		2.86671	
	589	1	2	7.19627		4.51004		3.74615	
	590	1	2	8.23660		4.74131		4.09812	
	591	1	2	9.01616		5.11403		3.38187	
	592	1	2	8.38086		6.02186		3.56042	
	593	1	2	9.48653		6.05459		3.37053	
	594	1	2	8.60394		6.74789		3.37015	
	595	1	2	9.54685		6.13967		3.39515	
	596	1	2	9.39543		7.13054		2.89026	
	597	1	2	9.02887		7.04642		3.94772	
	598	1	2	8.21846		7.76975		3.66544	
	599	1	2	8.28310		7.37233		2.61781	
	600	1	2	9.23448		7.27536		3.20530	
	601	1	2	9.82524		6.32147		3.17817	
	602	1	2	0.79139		6.29890		3.74886	
	603	1	2	0.27141		5.97361		4.68878	
	604	1	2	0.37988		6.55172		3.73292	
	605	1	2	9.89481		5.75589		3.10761	
	606	1	2	9.45039		6.47971		2.37398	
	607	1	2	8.62754		5.72132		2.28791	
	608	1	2	8.24333		4.76768		2.73802	
	609	1	2	8.61991		4.20795		3.63498	
	610	1	2	8.12895		3.67479		4.49193	
	611	1	2	7.43948		3.50302		3.62315	
	612	1	2	7.46246		3.68349		2.51565	
	613	1	2	7.98949		3.98701		3.45892	
	614	1	2	7.31616		3.38456		4.12475	
	615	1	2	8.15744		3.11179		3.43374	
	616	1	2	8.52159		3.38683		4.45911	
	617	1	2	9.54842		3.82889		4.55832	
	618	1	2	0.15828		3.48575		3.68084	
	619	1	2	9.93310		2.40032		3.50541	
	620	1	2	0.13009		3.44166		3.13601	
	621	1	2	0.44099		4.26757		2.44256	
	622	1	2	0.39682		4.13165		1.32936	
	623	1	2	9.70708		4.26574		2.20453	
	624	1	2	0.49707		3.48833		2.02787	
	625	1	2	1.44926		3.19036		2.54187	
	626	1	2	1.75860		4.21517		2.87909	
	627	1	2	1.37738		5.18245		3.30181	
	628	1	2	0.45015		4.63235		2.98988	
	629	1	2	0.90212		4.05286		3.83816	
	630	1	2	0.25651		4.88886		4.21758	
	631	1	2	0.36926		4.32898		5.18374	
	632	1	2	0.86051		3.32514		5.08067	
	633	1	2	0.25206		2.60027		4.47734	
	634	1	2	9.24085		2.23327		4.15730	
	635	1	2	0.00259		2.38760		4.96698	
	636	1	2	8.88278		2.36860		4.89421	
	637	1	2	7.78588		2.57352		4.77392	
	638	1	2	8.42701		3.29685		5.34436	
	639	1	2	7.68915		3.65458		4.57804	
	640	1	2	8.31332		2.86851		5.08018	
	641	1	2	9.39323		3.13108		5.23670	
	642	1	2	9.00066		4.16806		5.06291	
	643	1	2	9.21734		3.06699		5.04458	
	644	1	2	8.43519		3.83333		4.79837	
	645	1	2	8.98766		4.33366		5.63747	
	646	1	2	9.61434		3.47315		5.99307	
	647	1	2	0.66339		3.14012		6.21269	
	648	1	2	1.20370		2.88176		7.16188	
	649	1	2	0.21395		2.97415		6.64081	
	650	1	2	9.68312		3.90652		6.97029	
	651	1	2	9.98132		2.91621		7.40620	
	652	1	2	9.14257		2.58763		6.73675	
	653	1	2	8.87324		3.63937		6.45222	
	654	1	2	9.57122		3.85313		7.30473	
	655	1	2	0.49590		4.48676		7.36070	
	656	1	2	1.32137		5.08612		6.89271	
	657	1	2	0.89566		4.19536		6.35888	
	658	1	2	0.50003		3.74921		7.30971	
	659	1	2	0.63131		4.83345		7.05115	
	660	1	2	1.00766		5.88019		7.20060	
	661	1	2	1.33197		6.09943		6.14874	
	662	1	2	1.34448		6.38924		7.23295	
	663	1	2	0.41037		5.77065		7.29958	
	664	1	2	9.72164		6.64990		7.18914	
	665	1	2	0.10472		5.73494		7.71424	
	666	1	2	9.08797		5.42310		8.07289	
	667	1	2	9.67325		4.89982		8.87492	
	668	1	2	8.56533		5.06913		8.81587	
	669	1	2	8.26948		4.72910		9.84373	
	670	1	2	7.39038		4.09904		9.54398	
	671	1	2	6.95675		4.90663		0.19160	
	672	1	2	6.98960		4.61524		1.27496	
	673	1	2	7.51713		5.09689		0.40930	
	674	1	2	6.93638		4.75105		9.51332	
	675	1	2	7.07263		3.92756		0.26362	
	676	1	2	6.23382		4.26300		0.92960	
	677	1	2	5.41711		3.94209		0.22985	
	678	1	2	4.45776		3.74767		9.68076	
	679	1	2	4.07204		4.34357		0.55010	
	680	1	2	4.21380		5.42794		0.80245	
	681	1	2	4.74319		6.06440		0.04462	
	682	1	2	4.62079		6.76141		0.91574	
	683	1	2	4.78850		6.15966		1.84816	
	684	1	2	5.40463		5.22925		1.96804	
	685	1	2	5.91570		5.02561		0.98979	
	686	1	2	6.97209		5.27138		1.27841	
	687	1	2	7.23342		4.33409		1.83774	
	688	1	2	6.20298		4.51331		1.43066	
	689	1	2	6.22601		5.56793		1.81392	
	690	1	2	7.23365		6.05021		1.92220	
	691	1	2	8.31253		5.74118		1.90951	
	692	1	2	8.63052		5.94240		2.96688	
	693	1	2	9.47488		5.54741		3.59193	
	694	1	2	9.29137		6.08569		4.55953	
	695	1	2	9.10233		5.34094		5.37762	
	696	1	2	8.47045		5.97974		4.70506	
	697	1	2	8.44843		4.88239		4.47054	
	698	1	2	9.49885		4.57318		4.22428	
	699	1	2	0.12652		4.93792		3.36834	
	700	1	2	0.94595		4.27015		2.99114	
	701	1	2	0.84309		3.34741		3.62171	
	702	1	2	0.16786		2.47933		3.39777	
	703	1	2	9.26017		2.63874		2.75720	
	704	1	2	8.75455		3.14496		1.89248	
	705	1	2	8.63730		2.24006		2.54598	
	706	1	2	7.58319		2.14443		2.91928	
	707	1	2	6.76125		2.51279		3.58890	
	708	1	2	7.53330		1.74204		3.32520	
	709	1	2	6.65487		1.12844		3.65912	
	710	1	2	6.61313		2.17104		4.07252	
	711	1	2	7.12775		2.78253		4.86048	
	712	1	2	6.75830		3.20534		3.88869	
	713	1	2	7.59614		3.57478		3.23971	
	714	1	2	8.27023		2.96220		2.58397	
	715	1	2	7.56643		2.37806		3.23443	
	716	1	2	6.75685		3.14144		3.38098	
	717	1	2	5.87948		3.61906		2.86937	
	718	1	2	6.61035		3.48979		3.71125	
	719	1	2	6.01909		4.34468		4.13461	
	720	1	2	6.33314		4.91875		3.22276	
	721	1	2	7.23369		5.49830		2.88693	
	722	1	2	7.08033		5.29084		1.79464	
	723	1	2	7.89275		4.92430		2.47675	
	724	1	2	7.62967		4.76882		3.55669	
	725	1	2	6.70924		5.40438		3.64896	
	726	1	2	7.29354		4.44708		3.60639	
	727	1	2	6.67439		5.04906		4.32327	
	728	1	2	6.74557		5.65579		3.38175	
	729	1	2	7.32894		5.24600		2.51492	
	730	1	2	6.91063		4.61606		1.68557	
	731	1	2	7.52463		3.80327		2.15677	
	732	1	2	6.53478		4.27140		2.40317	
	733	1	2	6.05562		4.55192		1.42779	
	734	1	2	5.64903		3.67539		1.99876	
	735	1	2	6.39998		2.92138		2.35540	
	736	1	2	6.89362		3.12469		3.34263	
	737	1	2	6.87752		4.24457		3.27003	
	738	1	2	6.11809		5.07071		3.24995	
	739	1	2	5.02747		5.30146		3.11976	
	740	1	2	5.48310		6.30086		2.88900	
	741	1	2	5.08896		6.47425		1.85254	
	742	1	2	4.79536		7.54654		1.69879	
	743	1	2	5.31211		6.95264		0.89885	
	744	1	2	5.30703		8.04966		1.13585	
	745	1	2	4.32857		7.93044		1.67256	
	746	1	2	3.29791		7.49639		1.76736	
	747	1	2	3.28194		6.64106		1.04086	
	748	1	2	2.98452		7.68781		0.76608	
	749	1	2	3.55326		8.52187		0.27566	
	750	1	2	3.89614		9.55270		9.99375	
	751	1	2	4.99386		9.57085		9.76067	
	752	1	2	4.41214		9.72524		8.81335	
	753	1	2	3.93758		8.71196		8.72566	
	754	1	2	4.92095		8.17750		8.80919	
	755	1	2	5.92446		8.06001		9.29788	
	756	1	2	6.28676		8.55279		8.35684	
	757	1	2	7.28548		8.54941		7.84479	
	758	1	2	7.52542		9.60110		8.15464	
	759	1	2	7.56069		0.47094		7.44628	
	760	1	2	7.66289		1.51513		7.84487	
	761	1	2	7.50967		2.53761		7.40817	
	762	1	2	6.56867		2.75871		7.97851	
	763	1	2	5.83196		2.91556		7.14646	
	764	1	2	5.89522		1.83563		7.44547	
	765	1	2	6.79450		1.30440		7.03471	
	766	1	2	6.11316		1.47433		6.15918	
	767	1	2	6.93703		1.93176		6.76880	
	768	1	2	7.87151		2.39173		6.35070	
	769	1	2	7.69687		1.28314		6.33749	
	770	1	2	7.89752		0.21306		6.61012	
	771	1	2	8.33879		1.21630		6.36835	
	772	1	2	9.44149		1.03114		6.46545	
	773	1	2	0.14797		1.62139		5.82346	
	774	1	2	0.52115		2.67651		5.90770	
	775	1	2	0.75820		1.65838		5.49919	
	776	1	2	0.41056		2.69802		5.73991	
	777	1	2	0.74354		2.50847		6.79483	
	778	1	2	9.62507		2.52972		6.88559	
	779	1	2	8.98400		2.66769		7.79644	
	780	1	2	0.09812		2.79268		7.84900	
	781	1	2	8.99437		2.90395		7.67866	
	782	1	2	8.94828		1.85647		7.27829	
	783	1	2	9.50223		2.76312		6.91667	
	784	1	2	0.18242		3.48591		6.39269	
	785	1	2	1.17368		3.91927		6.09392	