#-----------------------------------------------------------------------------------           
# NANOPOLY - POLYMER NANOCOMPOSITE STRUCTURAL DATA FILE                                        
#-----------------------------------------------------------------------------------           
# FILENAME:  int_structure.in                                                                  
# DATE: 2021-09-10                                                                                
#-----------------------------------------------------------------------------------           
                                                                                               
100 atoms                                                             
99 bonds                                                             
                                                                                               
2 atom types                                      
1 bond types                                            
                                                                                    
0.0000 20.0000 xlo xhi            
0.0000 20.0000 ylo yhi            
0.0000 20.0000 zlo zhi            
                                                                                    
                                                                                    
# Types have been converted numerically as follows:                                 
# 1 mainbead
# 2 subbead
                                                                                    
Masses                                                                              
                                                                                    
1	0.5
2	1.0

Atoms                                                                               

	1	1	1	14.85353		14.06558		16.07551	
	2	1	2	14.72205		13.83780		14.98442	
	3	1	1	14.84085		14.81845		14.45162	
	4	1	2	15.42355		14.73916		15.40756	
	5	1	1	14.50082		14.15189		15.65922	
	6	1	2	13.72068		13.80953		14.92860	
	7	1	1	13.77975		12.68914		14.89855	
	8	1	2	14.55325		12.28133		15.60214	
	9	1	1	13.78029		12.95006		15.13849	
	10	1	2	13.22270		13.60671		14.41907	
	11	1	1	12.50359		12.75946		14.26198	
	12	1	2	11.78525		13.52972		13.87426	
	13	1	1	11.04102		12.96129		14.49285	
	14	1	2	11.14736		12.16878		13.70528	
	15	1	1	11.19812		13.28970		13.68078	
	16	1	2	12.21977		12.93130		13.97644	
	17	1	1	11.69185		11.94103		13.99409	
	18	1	2	11.43248		10.92659		13.59000	
	19	1	1	11.22572		11.88312		13.04050	
	20	1	2	10.57733		11.05247		13.42686	
	21	1	1	10.12330		11.63459		14.27222	
	22	1	2	9.45501		12.09020		13.49411	
	23	1	1	8.45960		12.11174		14.01212	
	24	1	2	8.83922		12.19419		12.95915	
	25	1	1	9.51807		11.69999		13.70385	
	26	1	2	8.68638		11.58914		14.44927	
	27	1	1	8.09769		11.18943		13.58132	
	28	1	2	7.66647		10.64809		14.46486	
	29	1	1	6.64037		10.22907		14.28825	
	30	1	2	7.24906		9.28619		14.29933	
	31	1	1	6.17899		8.99160		14.46612	
	32	1	2	6.70239		8.44328		13.63844	
	33	1	1	6.15435		8.38007		12.66104	
	34	1	2	6.34755		9.41348		13.05396	
	35	1	1	7.10714		8.58940		12.99438	
	36	1	2	6.68563		9.10585		13.89730	
	37	1	1	7.00855		8.44093		14.74184	
	38	1	2	7.49911		9.13030		15.47925	
	39	1	1	8.18198		8.67242		14.71526	
	40	1	2	9.09506		8.26159		14.20816	
	41	1	1	10.11371		8.29113		14.67840	
	42	1	2	9.83546		8.78587		13.71018	
	43	1	1	9.14672		8.29106		14.44532	
	44	1	2	8.15333		7.78128		14.33150	
	45	1	1	8.21924		8.63125		13.60153	
	46	1	2	8.11591		9.07977		14.62515	
	47	1	1	8.34166		10.05781		15.12726	
	48	1	2	7.86368		9.04792		15.23350	
	49	1	1	8.13031		9.77069		16.04968	
	50	1	2	7.43559		10.64412		16.16858	
	51	1	1	6.66963		11.28580		16.67967	
	52	1	2	7.35067		10.57715		16.13777	
	53	1	1	7.67804		11.55248		15.68921	
	54	1	2	7.87221		12.60091		15.33887	
	55	1	1	7.79840		13.67416		15.65874	
	56	1	2	7.54894		13.49763		16.73868	
	57	1	1	6.75953		14.06169		17.30287	
	58	1	2	5.67487		14.27126		17.10483	
	59	1	1	6.42528		13.48386		17.38147	
	60	1	2	5.86072		13.03121		18.23939	
	61	1	1	4.90552		13.52190		17.91313	
	62	1	2	4.83857		13.95254		18.94740	
	63	1	1	4.73453		14.25813		17.87249	
	64	1	2	4.51705		15.35857		17.90966	
	65	1	1	3.92115		16.24084		18.26484	
	66	1	2	4.96267		16.46559		17.91218	
	67	1	1	4.79029		16.37324		16.80701	
	68	1	2	4.97724		17.41968		17.16710	
	69	1	1	4.25827		17.57155		18.01543	
	70	1	2	3.26173		17.06508		17.91526	
	71	1	1	3.03815		16.88599		16.83009	
	72	1	2	2.62787		17.02211		15.79434	
	73	1	1	2.39624		16.15156		15.12490	
	74	1	2	1.82651		16.77464		14.38542	
	75	1	1	0.73354		16.75751		14.63990	
	76	1	2	1.65223		16.15885		14.40060	
	77	1	1	1.33784		15.22404		13.86493	
	78	1	2	1.32828		14.11509		13.69237	
	79	1	1	1.43085		13.38746		12.84402	
	80	1	2	1.71952		12.50031		13.46795	
	81	1	1	2.83938		12.57261		13.48646	
	82	1	2	2.67902		12.90100		12.42529	
	83	1	1	3.06371		11.89818		12.09972	
	84	1	2	2.75815		11.83461		13.17779	
	85	1	1	3.84405		11.55392		13.13661	
	86	1	2	3.21379		11.10168		12.32550	
	87	1	1	4.28034		11.44924		12.36167	
	88	1	2	4.60451		10.69799		11.59343	
	89	1	1	3.71743		10.39215		10.97763	
	90	1	2	3.67285		11.35955		11.54489	
	91	1	1	3.65355		11.61123		10.45131	
	92	1	2	2.81877		11.41257		11.17471	
	93	1	1	2.09380		10.90888		10.48162	
	94	1	2	2.28327		11.66755		9.67653	
	95	1	1	2.60405		10.61717		9.44533	
	96	1	2	2.46460		11.39538		10.24195	
	97	1	1	2.43372		12.51289		10.34121	
	98	1	2	3.42948		12.29650		9.87080	
	99	1	1	4.23129		12.52642		9.11988	
	100	1	2	5.13010		12.89329		9.68309	
Bonds                                                                               
                                                                                    
	1	1	1	2
	2	1	2	3
	3	1	3	4
	4	1	4	5
	5	1	5	6
	6	1	6	7
	7	1	7	8
	8	1	8	9
	9	1	9	10
	10	1	10	11
	11	1	11	12
	12	1	12	13
	13	1	13	14
	14	1	14	15
	15	1	15	16
	16	1	16	17
	17	1	17	18
	18	1	18	19
	19	1	19	20
	20	1	20	21
	21	1	21	22
	22	1	22	23
	23	1	23	24
	24	1	24	25
	25	1	25	26
	26	1	26	27
	27	1	27	28
	28	1	28	29
	29	1	29	30
	30	1	30	31
	31	1	31	32
	32	1	32	33
	33	1	33	34
	34	1	34	35
	35	1	35	36
	36	1	36	37
	37	1	37	38
	38	1	38	39
	39	1	39	40
	40	1	40	41
	41	1	41	42
	42	1	42	43
	43	1	43	44
	44	1	44	45
	45	1	45	46
	46	1	46	47
	47	1	47	48
	48	1	48	49
	49	1	49	50
	50	1	50	51
	51	1	51	52
	52	1	52	53
	53	1	53	54
	54	1	54	55
	55	1	55	56
	56	1	56	57
	57	1	57	58
	58	1	58	59
	59	1	59	60
	60	1	60	61
	61	1	61	62
	62	1	62	63
	63	1	63	64
	64	1	64	65
	65	1	65	66
	66	1	66	67
	67	1	67	68
	68	1	68	69
	69	1	69	70
	70	1	70	71
	71	1	71	72
	72	1	72	73
	73	1	73	74
	74	1	74	75
	75	1	75	76
	76	1	76	77
	77	1	77	78
	78	1	78	79
	79	1	79	80
	80	1	80	81
	81	1	81	82
	82	1	82	83
	83	1	83	84
	84	1	84	85
	85	1	85	86
	86	1	86	87
	87	1	87	88
	88	1	88	89
	89	1	89	90
	90	1	90	91
	91	1	91	92
	92	1	92	93
	93	1	93	94
	94	1	94	95
	95	1	95	96
	96	1	96	97
	97	1	97	98
	98	1	98	99
	99	1	99	100
