
# read data from object into file
read_data          ${structure}
read_data          int_structure.in
  orthogonal box = (0 0 0) to (20 20 20)
  1 by 1 by 1 MPI processor grid
  reading atoms ...
  100 atoms
  scanning bonds ...
  1 = max bonds/atom
  reading bonds ...
  99 bonds
  2 = max # of 1-2 neighbors
  2 = max # of 1-3 neighbors
  4 = max # of 1-4 neighbors
  6 = max # of special neighbors
  special bonds CPU = 8.2016e-05 secs
  read_data CPU = 0.00117207 secs

# define interactions
neighbor      4.0 multi
neigh_modify  every 10 one 10000
pair_style    lj/cut 1.5
pair_coeff    1 1 0.2 0.01
pair_style    lj/cut 1.5
pair_coeff    1 2 0.2 0.01
pair_style    lj/cut 1.5
pair_coeff    2 2 0.5 0.01

bond_style    fene
special_bonds fene
  2 = max # of 1-2 neighbors
  6 = max # of special neighbors
  special bonds CPU = 0.000133038 secs
bond_coeff    1 30 1.5 1.0 1.0
compute         1 all stress/atom NULL

#---------------------------------------------------------------------------------------------------
# POTENTIAL MODIFICATION STAGE
#---------------------------------------------------------------------------------------------------
pair_style    lj/cut/soft 1.0 1.0 1.5
pair_coeff    1 2 0.2 0.059500000000000004 0.1
pair_style    lj/cut/soft 1.0 1.0 1.5
pair_coeff    1 1 0.2 0.059500000000000004 0.1
pair_style    lj/cut/soft 1.0 1.0 1.5
pair_coeff    2 2 0.5 0.059500000000000004 0.1
velocity        all create 1.0 52690
fix             1 all nve/limit 1.5
fix             2 all langevin 1.0 1.0 10 52690
thermo_style    custom step temp press pe ke
thermo          100
run             100
Neighbor list info ...
  update every 10 steps, delay 10 steps, check yes
  max neighbors/atom: 10000, page size: 100000
  master list distance cutoff = 5.5
  ghost atom cutoff = 5.5
  binsize = 2.75, bins = 8 8 8
  1 neighbor lists, perpetual/occasional/extra = 1 0 0
  (1) pair lj/cut/soft, perpetual
      attributes: half, newton on
      pair build: half/multi/newton
      stencil: half/multi/3d/newton
      bin: standard
Per MPI rank memory allocation (min/avg/max) = 5.512 | 5.512 | 5.512 Mbytes
Step Temp Press PotEng KinEng 
       0            1  -0.34174293     27.41905        1.485 
     100     3.498522  0.039356264    23.345106    5.1953052 
Loop time of 0.00179195 on 1 procs for 100 steps with 100 atoms

Performance: 24107761.150 tau/day, 55805.003 timesteps/s
99.8% CPU use with 1 MPI tasks x 1 OpenMP threads

MPI task timing breakdown:
Section |  min time  |  avg time  |  max time  |%varavg| %total
---------------------------------------------------------------
Pair    | 0.00084329 | 0.00084329 | 0.00084329 |   0.0 | 47.06
Bond    | 0.00017548 | 0.00017548 | 0.00017548 |   0.0 |  9.79
Neigh   | 6.4135e-05 | 6.4135e-05 | 6.4135e-05 |   0.0 |  3.58
Comm    | 8.2493e-05 | 8.2493e-05 | 8.2493e-05 |   0.0 |  4.60
Output  | 8.1062e-06 | 8.1062e-06 | 8.1062e-06 |   0.0 |  0.45
Modify  | 0.00058293 | 0.00058293 | 0.00058293 |   0.0 | 32.53
Other   |            | 3.552e-05  |            |       |  1.98

Nlocal:    100 ave 100 max 100 min
Histogram: 1 0 0 0 0 0 0 0 0 0
Nghost:    173 ave 173 max 173 min
Histogram: 1 0 0 0 0 0 0 0 0 0
Neighs:    1764 ave 1764 max 1764 min
Histogram: 1 0 0 0 0 0 0 0 0 0

Total # of neighbors = 1764
Ave neighs/atom = 17.64
Ave special neighs/atom = 1.98
Neighbor list builds = 1
Dangerous builds = 0
unfix 1
unfix 2

pair_style    lj/cut/soft 1.0 1.0 1.5
pair_coeff    1 2 0.2 0.10900000000000001 0.1
pair_style    lj/cut/soft 1.0 1.0 1.5
pair_coeff    1 1 0.2 0.10900000000000001 0.1
pair_style    lj/cut/soft 1.0 1.0 1.5
pair_coeff    2 2 0.5 0.10900000000000001 0.1
velocity        all create 1.0 52690
fix             1 all nve/limit 1.5
fix             2 all langevin 1.0 1.0 10 52690
thermo_style    custom step temp press pe ke
thermo          100
run             100
Per MPI rank memory allocation (min/avg/max) = 5.512 | 5.512 | 5.512 Mbytes
Step Temp Press PotEng KinEng 
     100            1 0.0084365559    23.345086        1.485 
     200    2.0491323  0.029459766    21.578783    3.0429615 
Loop time of 0.00172901 on 1 procs for 100 steps with 100 atoms

Performance: 24985374.076 tau/day, 57836.514 timesteps/s
99.5% CPU use with 1 MPI tasks x 1 OpenMP threads

MPI task timing breakdown:
Section |  min time  |  avg time  |  max time  |%varavg| %total
---------------------------------------------------------------
Pair    | 0.00084734 | 0.00084734 | 0.00084734 |   0.0 | 49.01
Bond    | 0.00016785 | 0.00016785 | 0.00016785 |   0.0 |  9.71
Neigh   | 0          | 0          | 0          |   0.0 |  0.00
Comm    | 7.7248e-05 | 7.7248e-05 | 7.7248e-05 |   0.0 |  4.47
Output  | 1.3113e-05 | 1.3113e-05 | 1.3113e-05 |   0.0 |  0.76
Modify  | 0.00059271 | 0.00059271 | 0.00059271 |   0.0 | 34.28
Other   |            | 3.076e-05  |            |       |  1.78

Nlocal:    100 ave 100 max 100 min
Histogram: 1 0 0 0 0 0 0 0 0 0
Nghost:    173 ave 173 max 173 min
Histogram: 1 0 0 0 0 0 0 0 0 0
Neighs:    1764 ave 1764 max 1764 min
Histogram: 1 0 0 0 0 0 0 0 0 0

Total # of neighbors = 1764
Ave neighs/atom = 17.64
Ave special neighs/atom = 1.98
Neighbor list builds = 0
Dangerous builds = 0
unfix 1
unfix 2

pair_style    lj/cut/soft 1.0 1.0 1.5
pair_coeff    1 2 0.2 0.15850000000000003 0.1
pair_style    lj/cut/soft 1.0 1.0 1.5
pair_coeff    1 1 0.2 0.15850000000000003 0.1
pair_style    lj/cut/soft 1.0 1.0 1.5
pair_coeff    2 2 0.5 0.15850000000000003 0.1
velocity        all create 1.0 52690
fix             1 all nve/limit 1.5
fix             2 all langevin 1.0 1.0 10 52690
thermo_style    custom step temp press pe ke
thermo          100
run             100
Per MPI rank memory allocation (min/avg/max) = 5.512 | 5.512 | 5.512 Mbytes
Step Temp Press PotEng KinEng 
     200            1   0.01647278    21.578605        1.485 
     300    1.4020472  -0.01763915    20.895767    2.0820401 
Loop time of 0.00165105 on 1 procs for 100 steps with 100 atoms

Performance: 26165188.852 tau/day, 60567.567 timesteps/s
99.8% CPU use with 1 MPI tasks x 1 OpenMP threads

MPI task timing breakdown:
Section |  min time  |  avg time  |  max time  |%varavg| %total
---------------------------------------------------------------
Pair    | 0.00077057 | 0.00077057 | 0.00077057 |   0.0 | 46.67
Bond    | 0.00017309 | 0.00017309 | 0.00017309 |   0.0 | 10.48
Neigh   | 0          | 0          | 0          |   0.0 |  0.00
Comm    | 7.7009e-05 | 7.7009e-05 | 7.7009e-05 |   0.0 |  4.66
Output  | 6.9141e-06 | 6.9141e-06 | 6.9141e-06 |   0.0 |  0.42
Modify  | 0.00059032 | 0.00059032 | 0.00059032 |   0.0 | 35.75
Other   |            | 3.314e-05  |            |       |  2.01

Nlocal:    100 ave 100 max 100 min
Histogram: 1 0 0 0 0 0 0 0 0 0
Nghost:    176 ave 176 max 176 min
Histogram: 1 0 0 0 0 0 0 0 0 0
Neighs:    1773 ave 1773 max 1773 min
Histogram: 1 0 0 0 0 0 0 0 0 0

Total # of neighbors = 1773
Ave neighs/atom = 17.73
Ave special neighs/atom = 1.98
Neighbor list builds = 0
Dangerous builds = 0
unfix 1
unfix 2

pair_style    lj/cut/soft 1.0 1.0 1.5
pair_coeff    1 2 0.2 0.20800000000000002 0.1
pair_style    lj/cut/soft 1.0 1.0 1.5
pair_coeff    1 1 0.2 0.20800000000000002 0.1
pair_style    lj/cut/soft 1.0 1.0 1.5
pair_coeff    2 2 0.5 0.20800000000000002 0.1
velocity        all create 1.0 52690
fix             1 all nve/limit 1.5
fix             2 all langevin 1.0 1.0 10 52690
thermo_style    custom step temp press pe ke
thermo          100
run             100
Per MPI rank memory allocation (min/avg/max) = 5.512 | 5.512 | 5.512 Mbytes
Step Temp Press PotEng KinEng 
     300            1 -0.022618458     20.89546        1.485 
     400     1.173517 -0.0025528615    20.593457    1.7426727 
Loop time of 0.00171304 on 1 procs for 100 steps with 100 atoms

Performance: 25218362.255 tau/day, 58375.839 timesteps/s
99.8% CPU use with 1 MPI tasks x 1 OpenMP threads

MPI task timing breakdown:
Section |  min time  |  avg time  |  max time  |%varavg| %total
---------------------------------------------------------------
Pair    | 0.00080729 | 0.00080729 | 0.00080729 |   0.0 | 47.13
Bond    | 0.00017357 | 0.00017357 | 0.00017357 |   0.0 | 10.13
Neigh   | 0          | 0          | 0          |   0.0 |  0.00
Comm    | 7.5817e-05 | 7.5817e-05 | 7.5817e-05 |   0.0 |  4.43
Output  | 6.9141e-06 | 6.9141e-06 | 6.9141e-06 |   0.0 |  0.40
Modify  | 0.00061297 | 0.00061297 | 0.00061297 |   0.0 | 35.78
Other   |            | 3.648e-05  |            |       |  2.13

Nlocal:    100 ave 100 max 100 min
Histogram: 1 0 0 0 0 0 0 0 0 0
Nghost:    182 ave 182 max 182 min
Histogram: 1 0 0 0 0 0 0 0 0 0
Neighs:    1761 ave 1761 max 1761 min
Histogram: 1 0 0 0 0 0 0 0 0 0

Total # of neighbors = 1761
Ave neighs/atom = 17.61
Ave special neighs/atom = 1.98
Neighbor list builds = 0
Dangerous builds = 0
unfix 1
unfix 2

pair_style    lj/cut/soft 1.0 1.0 1.5
pair_coeff    1 2 0.2 0.2575 0.1
pair_style    lj/cut/soft 1.0 1.0 1.5
pair_coeff    1 1 0.2 0.2575 0.1
pair_style    lj/cut/soft 1.0 1.0 1.5
pair_coeff    2 2 0.5 0.2575 0.1
velocity        all create 1.0 52690
fix             1 all nve/limit 1.5
fix             2 all langevin 1.0 1.0 10 52690
thermo_style    custom step temp press pe ke
thermo          100
run             100
Per MPI rank memory allocation (min/avg/max) = 5.512 | 5.512 | 5.512 Mbytes
Step Temp Press PotEng KinEng 
     400            1 -0.0046948295    20.592891        1.485 
     500   0.97666596 -0.018843567    20.577461     1.450349 
Loop time of 0.00159383 on 1 procs for 100 steps with 100 atoms

Performance: 27104552.401 tau/day, 62742.019 timesteps/s
99.8% CPU use with 1 MPI tasks x 1 OpenMP threads

MPI task timing breakdown:
Section |  min time  |  avg time  |  max time  |%varavg| %total
---------------------------------------------------------------
Pair    | 0.00072885 | 0.00072885 | 0.00072885 |   0.0 | 45.73
Bond    | 0.00016999 | 0.00016999 | 0.00016999 |   0.0 | 10.67
Neigh   | 0          | 0          | 0          |   0.0 |  0.00
Comm    | 7.9155e-05 | 7.9155e-05 | 7.9155e-05 |   0.0 |  4.97
Output  | 5.9605e-06 | 5.9605e-06 | 5.9605e-06 |   0.0 |  0.37
Modify  | 0.00057411 | 0.00057411 | 0.00057411 |   0.0 | 36.02
Other   |            | 3.576e-05  |            |       |  2.24

Nlocal:    100 ave 100 max 100 min
Histogram: 1 0 0 0 0 0 0 0 0 0
Nghost:    181 ave 181 max 181 min
Histogram: 1 0 0 0 0 0 0 0 0 0
Neighs:    1730 ave 1730 max 1730 min
Histogram: 1 0 0 0 0 0 0 0 0 0

Total # of neighbors = 1730
Ave neighs/atom = 17.3
Ave special neighs/atom = 1.98
Neighbor list builds = 0
Dangerous builds = 0
unfix 1
unfix 2

pair_style    lj/cut/soft 1.0 1.0 1.5
pair_coeff    1 2 0.2 0.307 0.1
pair_style    lj/cut/soft 1.0 1.0 1.5
pair_coeff    1 1 0.2 0.307 0.1
pair_style    lj/cut/soft 1.0 1.0 1.5
pair_coeff    2 2 0.5 0.307 0.1
velocity        all create 1.0 52690
fix             1 all nve/limit 1.5
fix             2 all langevin 1.0 1.0 10 52690
thermo_style    custom step temp press pe ke
thermo          100
run             100
Per MPI rank memory allocation (min/avg/max) = 5.512 | 5.512 | 5.512 Mbytes
Step Temp Press PotEng KinEng 
     500            1 -0.018552831    20.577238        1.485 
     600    1.0185336 0.0038652031    20.531761    1.5125224 
Loop time of 0.00157619 on 1 procs for 100 steps with 100 atoms

Performance: 27407946.271 tau/day, 63444.320 timesteps/s
99.8% CPU use with 1 MPI tasks x 1 OpenMP threads

MPI task timing breakdown:
Section |  min time  |  avg time  |  max time  |%varavg| %total
---------------------------------------------------------------
Pair    | 0.00070524 | 0.00070524 | 0.00070524 |   0.0 | 44.74
Bond    | 0.00016117 | 0.00016117 | 0.00016117 |   0.0 | 10.23
Neigh   | 0          | 0          | 0          |   0.0 |  0.00
Comm    | 8.7976e-05 | 8.7976e-05 | 8.7976e-05 |   0.0 |  5.58
Output  | 5.9605e-06 | 5.9605e-06 | 5.9605e-06 |   0.0 |  0.38
Modify  | 0.00057936 | 0.00057936 | 0.00057936 |   0.0 | 36.76
Other   |            | 3.648e-05  |            |       |  2.31

Nlocal:    100 ave 100 max 100 min
Histogram: 1 0 0 0 0 0 0 0 0 0
Nghost:    197 ave 197 max 197 min
Histogram: 1 0 0 0 0 0 0 0 0 0
Neighs:    1703 ave 1703 max 1703 min
Histogram: 1 0 0 0 0 0 0 0 0 0

Total # of neighbors = 1703
Ave neighs/atom = 17.03
Ave special neighs/atom = 1.98
Neighbor list builds = 0
Dangerous builds = 0
unfix 1
unfix 2

pair_style    lj/cut/soft 1.0 1.0 1.5
pair_coeff    1 2 0.2 0.3565 0.1
pair_style    lj/cut/soft 1.0 1.0 1.5
pair_coeff    1 1 0.2 0.3565 0.1
pair_style    lj/cut/soft 1.0 1.0 1.5
pair_coeff    2 2 0.5 0.3565 0.1
velocity        all create 1.0 52690
fix             1 all nve/limit 1.5
fix             2 all langevin 1.0 1.0 10 52690
thermo_style    custom step temp press pe ke
thermo          100
run             100
Per MPI rank memory allocation (min/avg/max) = 5.512 | 5.512 | 5.512 Mbytes
Step Temp Press PotEng KinEng 
     600            1 0.0036273562    20.530977        1.485 
     700    1.0047894  0.020750749    20.512364    1.4921123 
Loop time of 0.00160098 on 1 procs for 100 steps with 100 atoms

Performance: 26983459.836 tau/day, 62461.713 timesteps/s
99.5% CPU use with 1 MPI tasks x 1 OpenMP threads

MPI task timing breakdown:
Section |  min time  |  avg time  |  max time  |%varavg| %total
---------------------------------------------------------------
Pair    | 0.00071526 | 0.00071526 | 0.00071526 |   0.0 | 44.68
Bond    | 0.00015974 | 0.00015974 | 0.00015974 |   0.0 |  9.98
Neigh   | 0          | 0          | 0          |   0.0 |  0.00
Comm    | 8.2016e-05 | 8.2016e-05 | 8.2016e-05 |   0.0 |  5.12
Output  | 1.0967e-05 | 1.0967e-05 | 1.0967e-05 |   0.0 |  0.69
Modify  | 0.00059748 | 0.00059748 | 0.00059748 |   0.0 | 37.32
Other   |            | 3.552e-05  |            |       |  2.22

Nlocal:    100 ave 100 max 100 min
Histogram: 1 0 0 0 0 0 0 0 0 0
Nghost:    193 ave 193 max 193 min
Histogram: 1 0 0 0 0 0 0 0 0 0
Neighs:    1673 ave 1673 max 1673 min
Histogram: 1 0 0 0 0 0 0 0 0 0

Total # of neighbors = 1673
Ave neighs/atom = 16.73
Ave special neighs/atom = 1.98
Neighbor list builds = 0
Dangerous builds = 0
unfix 1
unfix 2

pair_style    lj/cut/soft 1.0 1.0 1.5
pair_coeff    1 2 0.2 0.40599999999999997 0.1
pair_style    lj/cut/soft 1.0 1.0 1.5
pair_coeff    1 1 0.2 0.40599999999999997 0.1
pair_style    lj/cut/soft 1.0 1.0 1.5
pair_coeff    2 2 0.5 0.40599999999999997 0.1
velocity        all create 1.0 52690
fix             1 all nve/limit 1.5
fix             2 all langevin 1.0 1.0 10 52690
thermo_style    custom step temp press pe ke
thermo          100
run             100
Per MPI rank memory allocation (min/avg/max) = 5.512 | 5.512 | 5.512 Mbytes
Step Temp Press PotEng KinEng 
     700            1  0.020682743    20.512045        1.485 
     800   0.90209179 -0.012893173    20.563399    1.3396063 
Loop time of 0.0015099 on 1 procs for 100 steps with 100 atoms

Performance: 28611074.183 tau/day, 66229.338 timesteps/s
99.8% CPU use with 1 MPI tasks x 1 OpenMP threads

MPI task timing breakdown:
Section |  min time  |  avg time  |  max time  |%varavg| %total
---------------------------------------------------------------
Pair    | 0.00063872 | 0.00063872 | 0.00063872 |   0.0 | 42.30
Bond    | 0.00016141 | 0.00016141 | 0.00016141 |   0.0 | 10.69
Neigh   | 0          | 0          | 0          |   0.0 |  0.00
Comm    | 8.6546e-05 | 8.6546e-05 | 8.6546e-05 |   0.0 |  5.73
Output  | 5.9605e-06 | 5.9605e-06 | 5.9605e-06 |   0.0 |  0.39
Modify  | 0.00057459 | 0.00057459 | 0.00057459 |   0.0 | 38.05
Other   |            | 4.268e-05  |            |       |  2.83

Nlocal:    100 ave 100 max 100 min
Histogram: 1 0 0 0 0 0 0 0 0 0
Nghost:    210 ave 210 max 210 min
Histogram: 1 0 0 0 0 0 0 0 0 0
Neighs:    1617 ave 1617 max 1617 min
Histogram: 1 0 0 0 0 0 0 0 0 0

Total # of neighbors = 1617
Ave neighs/atom = 16.17
Ave special neighs/atom = 1.98
Neighbor list builds = 0
Dangerous builds = 0
unfix 1
unfix 2

pair_style    lj/cut/soft 1.0 1.0 1.5
pair_coeff    1 2 0.2 0.45549999999999996 0.1
pair_style    lj/cut/soft 1.0 1.0 1.5
pair_coeff    1 1 0.2 0.45549999999999996 0.1
pair_style    lj/cut/soft 1.0 1.0 1.5
pair_coeff    2 2 0.5 0.45549999999999996 0.1
velocity        all create 1.0 52690
fix             1 all nve/limit 1.5
fix             2 all langevin 1.0 1.0 10 52690
thermo_style    custom step temp press pe ke
thermo          100
run             100
Per MPI rank memory allocation (min/avg/max) = 5.512 | 5.512 | 5.512 Mbytes
Step Temp Press PotEng KinEng 
     800            1 -0.011684941    20.562871        1.485 
     900    1.0191267 -0.0042665188    20.547488    1.5134032 
Loop time of 0.0014801 on 1 procs for 100 steps with 100 atoms

Performance: 29187167.010 tau/day, 67562.887 timesteps/s
99.8% CPU use with 1 MPI tasks x 1 OpenMP threads

MPI task timing breakdown:
Section |  min time  |  avg time  |  max time  |%varavg| %total
---------------------------------------------------------------
Pair    | 0.00059772 | 0.00059772 | 0.00059772 |   0.0 | 40.38
Bond    | 0.00016928 | 0.00016928 | 0.00016928 |   0.0 | 11.44
Neigh   | 0          | 0          | 0          |   0.0 |  0.00
Comm    | 8.1062e-05 | 8.1062e-05 | 8.1062e-05 |   0.0 |  5.48
Output  | 5.9605e-06 | 5.9605e-06 | 5.9605e-06 |   0.0 |  0.40
Modify  | 0.00058126 | 0.00058126 | 0.00058126 |   0.0 | 39.27
Other   |            | 4.482e-05  |            |       |  3.03

Nlocal:    100 ave 100 max 100 min
Histogram: 1 0 0 0 0 0 0 0 0 0
Nghost:    205 ave 205 max 205 min
Histogram: 1 0 0 0 0 0 0 0 0 0
Neighs:    1558 ave 1558 max 1558 min
Histogram: 1 0 0 0 0 0 0 0 0 0

Total # of neighbors = 1558
Ave neighs/atom = 15.58
Ave special neighs/atom = 1.98
Neighbor list builds = 0
Dangerous builds = 0
unfix 1
unfix 2

pair_style    lj/cut/soft 1.0 1.0 1.5
pair_coeff    1 2 0.2 0.505 0.1
pair_style    lj/cut/soft 1.0 1.0 1.5
pair_coeff    1 1 0.2 0.505 0.1
pair_style    lj/cut/soft 1.0 1.0 1.5
pair_coeff    2 2 0.5 0.505 0.1
velocity        all create 1.0 52690
fix             1 all nve/limit 1.5
fix             2 all langevin 1.0 1.0 10 52690
thermo_style    custom step temp press pe ke
thermo          100
run             100
Per MPI rank memory allocation (min/avg/max) = 5.512 | 5.512 | 5.512 Mbytes
Step Temp Press PotEng KinEng 
     900            1 -0.0045083355    20.547313        1.485 
    1000   0.97901843 -0.0091654941    20.556183    1.4538424 
Loop time of 0.00148606 on 1 procs for 100 steps with 100 atoms

Performance: 29070099.920 tau/day, 67291.898 timesteps/s
100.1% CPU use with 1 MPI tasks x 1 OpenMP threads

MPI task timing breakdown:
Section |  min time  |  avg time  |  max time  |%varavg| %total
---------------------------------------------------------------
Pair    | 0.00056934 | 0.00056934 | 0.00056934 |   0.0 | 38.31
Bond    | 0.00017667 | 0.00017667 | 0.00017667 |   0.0 | 11.89
Neigh   | 0          | 0          | 0          |   0.0 |  0.00
Comm    | 7.7009e-05 | 7.7009e-05 | 7.7009e-05 |   0.0 |  5.18
Output  | 1.0967e-05 | 1.0967e-05 | 1.0967e-05 |   0.0 |  0.74
Modify  | 0.00060272 | 0.00060272 | 0.00060272 |   0.0 | 40.56
Other   |            | 4.935e-05  |            |       |  3.32

Nlocal:    100 ave 100 max 100 min
Histogram: 1 0 0 0 0 0 0 0 0 0
Nghost:    210 ave 210 max 210 min
Histogram: 1 0 0 0 0 0 0 0 0 0
Neighs:    1494 ave 1494 max 1494 min
Histogram: 1 0 0 0 0 0 0 0 0 0

Total # of neighbors = 1494
Ave neighs/atom = 14.94
Ave special neighs/atom = 1.98
Neighbor list builds = 0
Dangerous builds = 0
unfix 1
unfix 2

pair_style    lj/cut/soft 1.0 1.0 1.5
pair_coeff    1 2 0.2 0.5545 0.1
pair_style    lj/cut/soft 1.0 1.0 1.5
pair_coeff    1 1 0.2 0.5545 0.1
pair_style    lj/cut/soft 1.0 1.0 1.5
pair_coeff    2 2 0.5 0.5545 0.1
velocity        all create 1.0 52690
fix             1 all nve/limit 1.5
fix             2 all langevin 1.0 1.0 10 52690
thermo_style    custom step temp press pe ke
thermo          100
run             100
Per MPI rank memory allocation (min/avg/max) = 5.513 | 5.513 | 5.513 Mbytes
Step Temp Press PotEng KinEng 
    1000            1 -0.0089139873    20.555492        1.485 
    1100    0.9834274  -0.01353492    20.582148    1.4603897 
Loop time of 0.00143003 on 1 procs for 100 steps with 100 atoms

Performance: 30209058.486 tau/day, 69928.376 timesteps/s
99.8% CPU use with 1 MPI tasks x 1 OpenMP threads

MPI task timing breakdown:
Section |  min time  |  avg time  |  max time  |%varavg| %total
---------------------------------------------------------------
Pair    | 0.00052714 | 0.00052714 | 0.00052714 |   0.0 | 36.86
Bond    | 0.00017786 | 0.00017786 | 0.00017786 |   0.0 | 12.44
Neigh   | 0          | 0          | 0          |   0.0 |  0.00
Comm    | 8.4162e-05 | 8.4162e-05 | 8.4162e-05 |   0.0 |  5.89
Output  | 6.9141e-06 | 6.9141e-06 | 6.9141e-06 |   0.0 |  0.48
Modify  | 0.00058556 | 0.00058556 | 0.00058556 |   0.0 | 40.95
Other   |            | 4.84e-05   |            |       |  3.38

Nlocal:    100 ave 100 max 100 min
Histogram: 1 0 0 0 0 0 0 0 0 0
Nghost:    218 ave 218 max 218 min
Histogram: 1 0 0 0 0 0 0 0 0 0
Neighs:    1425 ave 1425 max 1425 min
Histogram: 1 0 0 0 0 0 0 0 0 0

Total # of neighbors = 1425
Ave neighs/atom = 14.25
Ave special neighs/atom = 1.98
Neighbor list builds = 0
Dangerous builds = 0
unfix 1
unfix 2

pair_style    lj/cut/soft 1.0 1.0 1.5
pair_coeff    1 2 0.2 0.604 0.1
pair_style    lj/cut/soft 1.0 1.0 1.5
pair_coeff    1 1 0.2 0.604 0.1
pair_style    lj/cut/soft 1.0 1.0 1.5
pair_coeff    2 2 0.5 0.604 0.1
velocity        all create 1.0 52690
fix             1 all nve/limit 1.5
fix             2 all langevin 1.0 1.0 10 52690
thermo_style    custom step temp press pe ke
thermo          100
run             100
Per MPI rank memory allocation (min/avg/max) = 5.513 | 5.513 | 5.513 Mbytes
Step Temp Press PotEng KinEng 
    1100            1 -0.013333601    20.581681        1.485 
    1200   0.96723347 -0.004883891    20.640563    1.4363417 
Loop time of 0.0014081 on 1 procs for 100 steps with 100 atoms

Performance: 30679636.438 tau/day, 71017.677 timesteps/s
99.8% CPU use with 1 MPI tasks x 1 OpenMP threads

MPI task timing breakdown:
Section |  min time  |  avg time  |  max time  |%varavg| %total
---------------------------------------------------------------
Pair    | 0.00051618 | 0.00051618 | 0.00051618 |   0.0 | 36.66
Bond    | 0.00016475 | 0.00016475 | 0.00016475 |   0.0 | 11.70
Neigh   | 0          | 0          | 0          |   0.0 |  0.00
Comm    | 9.5844e-05 | 9.5844e-05 | 9.5844e-05 |   0.0 |  6.81
Output  | 6.9141e-06 | 6.9141e-06 | 6.9141e-06 |   0.0 |  0.49
Modify  | 0.00057793 | 0.00057793 | 0.00057793 |   0.0 | 41.04
Other   |            | 4.649e-05  |            |       |  3.30

Nlocal:    100 ave 100 max 100 min
Histogram: 1 0 0 0 0 0 0 0 0 0
Nghost:    227 ave 227 max 227 min
Histogram: 1 0 0 0 0 0 0 0 0 0
Neighs:    1375 ave 1375 max 1375 min
Histogram: 1 0 0 0 0 0 0 0 0 0

Total # of neighbors = 1375
Ave neighs/atom = 13.75
Ave special neighs/atom = 1.98
Neighbor list builds = 0
Dangerous builds = 0
unfix 1
unfix 2

pair_style    lj/cut/soft 1.0 1.0 1.5
pair_coeff    1 2 0.2 0.6535 0.1
pair_style    lj/cut/soft 1.0 1.0 1.5
pair_coeff    1 1 0.2 0.6535 0.1
pair_style    lj/cut/soft 1.0 1.0 1.5
pair_coeff    2 2 0.5 0.6535 0.1
velocity        all create 1.0 52690
fix             1 all nve/limit 1.5
fix             2 all langevin 1.0 1.0 10 52690
thermo_style    custom step temp press pe ke
thermo          100
run             100
Per MPI rank memory allocation (min/avg/max) = 5.513 | 5.513 | 5.513 Mbytes
Step Temp Press PotEng KinEng 
    1200            1 -0.0044844215    20.640034        1.485 
    1300    1.0272404 -0.0076463012    20.545748    1.5254519 
Loop time of 0.00139713 on 1 procs for 100 steps with 100 atoms

Performance: 30920466.348 tau/day, 71575.154 timesteps/s
99.7% CPU use with 1 MPI tasks x 1 OpenMP threads

MPI task timing breakdown:
Section |  min time  |  avg time  |  max time  |%varavg| %total
---------------------------------------------------------------
Pair    | 0.00051069 | 0.00051069 | 0.00051069 |   0.0 | 36.55
Bond    | 0.00016403 | 0.00016403 | 0.00016403 |   0.0 | 11.74
Neigh   | 0          | 0          | 0          |   0.0 |  0.00
Comm    | 9.5367e-05 | 9.5367e-05 | 9.5367e-05 |   0.0 |  6.83
Output  | 6.1989e-06 | 6.1989e-06 | 6.1989e-06 |   0.0 |  0.44
Modify  | 0.00058317 | 0.00058317 | 0.00058317 |   0.0 | 41.74
Other   |            | 3.767e-05  |            |       |  2.70

Nlocal:    100 ave 100 max 100 min
Histogram: 1 0 0 0 0 0 0 0 0 0
Nghost:    218 ave 218 max 218 min
Histogram: 1 0 0 0 0 0 0 0 0 0
Neighs:    1345 ave 1345 max 1345 min
Histogram: 1 0 0 0 0 0 0 0 0 0

Total # of neighbors = 1345
Ave neighs/atom = 13.45
Ave special neighs/atom = 1.98
Neighbor list builds = 0
Dangerous builds = 0
unfix 1
unfix 2

pair_style    lj/cut/soft 1.0 1.0 1.5
pair_coeff    1 2 0.2 0.703 0.1
pair_style    lj/cut/soft 1.0 1.0 1.5
pair_coeff    1 1 0.2 0.703 0.1
pair_style    lj/cut/soft 1.0 1.0 1.5
pair_coeff    2 2 0.5 0.703 0.1
velocity        all create 1.0 52690
fix             1 all nve/limit 1.5
fix             2 all langevin 1.0 1.0 10 52690
thermo_style    custom step temp press pe ke
thermo          100
run             100
Per MPI rank memory allocation (min/avg/max) = 5.513 | 5.513 | 5.513 Mbytes
Step Temp Press PotEng KinEng 
    1300            1 -0.0079909455    20.545057        1.485 
    1400   0.86066424 -0.016939506    20.706542    1.2780864 
Loop time of 0.00139308 on 1 procs for 100 steps with 100 atoms

Performance: 31010428.342 tau/day, 71783.399 timesteps/s
99.8% CPU use with 1 MPI tasks x 1 OpenMP threads

MPI task timing breakdown:
Section |  min time  |  avg time  |  max time  |%varavg| %total
---------------------------------------------------------------
Pair    | 0.000494   | 0.000494   | 0.000494   |   0.0 | 35.46
Bond    | 0.00017858 | 0.00017858 | 0.00017858 |   0.0 | 12.82
Neigh   | 0          | 0          | 0          |   0.0 |  0.00
Comm    | 8.893e-05  | 8.893e-05  | 8.893e-05  |   0.0 |  6.38
Output  | 5.9605e-06 | 5.9605e-06 | 5.9605e-06 |   0.0 |  0.43
Modify  | 0.00059247 | 0.00059247 | 0.00059247 |   0.0 | 42.53
Other   |            | 3.314e-05  |            |       |  2.38

Nlocal:    100 ave 100 max 100 min
Histogram: 1 0 0 0 0 0 0 0 0 0
Nghost:    231 ave 231 max 231 min
Histogram: 1 0 0 0 0 0 0 0 0 0
Neighs:    1283 ave 1283 max 1283 min
Histogram: 1 0 0 0 0 0 0 0 0 0

Total # of neighbors = 1283
Ave neighs/atom = 12.83
Ave special neighs/atom = 1.98
Neighbor list builds = 0
Dangerous builds = 0
unfix 1
unfix 2

pair_style    lj/cut/soft 1.0 1.0 1.5
pair_coeff    1 2 0.2 0.7525 0.1
pair_style    lj/cut/soft 1.0 1.0 1.5
pair_coeff    1 1 0.2 0.7525 0.1
pair_style    lj/cut/soft 1.0 1.0 1.5
pair_coeff    2 2 0.5 0.7525 0.1
velocity        all create 1.0 52690
fix             1 all nve/limit 1.5
fix             2 all langevin 1.0 1.0 10 52690
thermo_style    custom step temp press pe ke
thermo          100
run             100
Per MPI rank memory allocation (min/avg/max) = 5.513 | 5.513 | 5.513 Mbytes
Step Temp Press PotEng KinEng 
    1400            1 -0.015224429    20.705803        1.485 
    1500    1.0022856 -0.019813747    20.632815    1.4883942 
Loop time of 0.00137901 on 1 procs for 100 steps with 100 atoms

Performance: 31326751.867 tau/day, 72515.629 timesteps/s
99.9% CPU use with 1 MPI tasks x 1 OpenMP threads

MPI task timing breakdown:
Section |  min time  |  avg time  |  max time  |%varavg| %total
---------------------------------------------------------------
Pair    | 0.00047398 | 0.00047398 | 0.00047398 |   0.0 | 34.37
Bond    | 0.00017023 | 0.00017023 | 0.00017023 |   0.0 | 12.34
Neigh   | 0          | 0          | 0          |   0.0 |  0.00
Comm    | 9.0599e-05 | 9.0599e-05 | 9.0599e-05 |   0.0 |  6.57
Output  | 5.9605e-06 | 5.9605e-06 | 5.9605e-06 |   0.0 |  0.43
Modify  | 0.00059843 | 0.00059843 | 0.00059843 |   0.0 | 43.40
Other   |            | 3.982e-05  |            |       |  2.89

Nlocal:    100 ave 100 max 100 min
Histogram: 1 0 0 0 0 0 0 0 0 0
Nghost:    225 ave 225 max 225 min
Histogram: 1 0 0 0 0 0 0 0 0 0
Neighs:    1247 ave 1247 max 1247 min
Histogram: 1 0 0 0 0 0 0 0 0 0

Total # of neighbors = 1247
Ave neighs/atom = 12.47
Ave special neighs/atom = 1.98
Neighbor list builds = 0
Dangerous builds = 0
unfix 1
unfix 2

pair_style    lj/cut/soft 1.0 1.0 1.5
pair_coeff    1 2 0.2 0.8019999999999999 0.1
pair_style    lj/cut/soft 1.0 1.0 1.5
pair_coeff    1 1 0.2 0.8019999999999999 0.1
pair_style    lj/cut/soft 1.0 1.0 1.5
pair_coeff    2 2 0.5 0.8019999999999999 0.1
velocity        all create 1.0 52690
fix             1 all nve/limit 1.5
fix             2 all langevin 1.0 1.0 10 52690
thermo_style    custom step temp press pe ke
thermo          100
run             100
Per MPI rank memory allocation (min/avg/max) = 5.513 | 5.513 | 5.513 Mbytes
Step Temp Press PotEng KinEng 
    1500            1 -0.019844311    20.631932        1.485 
    1600     1.050093 -0.0044716556    20.508252    1.5593881 
Loop time of 0.00137591 on 1 procs for 100 steps with 100 atoms

Performance: 31397319.841 tau/day, 72678.981 timesteps/s
99.6% CPU use with 1 MPI tasks x 1 OpenMP threads

MPI task timing breakdown:
Section |  min time  |  avg time  |  max time  |%varavg| %total
---------------------------------------------------------------
Pair    | 0.00046611 | 0.00046611 | 0.00046611 |   0.0 | 33.88
Bond    | 0.00016737 | 0.00016737 | 0.00016737 |   0.0 | 12.16
Neigh   | 0          | 0          | 0          |   0.0 |  0.00
Comm    | 9.6321e-05 | 9.6321e-05 | 9.6321e-05 |   0.0 |  7.00
Output  | 1.0967e-05 | 1.0967e-05 | 1.0967e-05 |   0.0 |  0.80
Modify  | 0.00059843 | 0.00059843 | 0.00059843 |   0.0 | 43.49
Other   |            | 3.672e-05  |            |       |  2.67

Nlocal:    100 ave 100 max 100 min
Histogram: 1 0 0 0 0 0 0 0 0 0
Nghost:    235 ave 235 max 235 min
Histogram: 1 0 0 0 0 0 0 0 0 0
Neighs:    1214 ave 1214 max 1214 min
Histogram: 1 0 0 0 0 0 0 0 0 0

Total # of neighbors = 1214
Ave neighs/atom = 12.14
Ave special neighs/atom = 1.98
Neighbor list builds = 0
Dangerous builds = 0
unfix 1
unfix 2

pair_style    lj/cut/soft 1.0 1.0 1.5
pair_coeff    1 2 0.2 0.8514999999999999 0.1
pair_style    lj/cut/soft 1.0 1.0 1.5
pair_coeff    1 1 0.2 0.8514999999999999 0.1
pair_style    lj/cut/soft 1.0 1.0 1.5
pair_coeff    2 2 0.5 0.8514999999999999 0.1
velocity        all create 1.0 52690
fix             1 all nve/limit 1.5
fix             2 all langevin 1.0 1.0 10 52690
thermo_style    custom step temp press pe ke
thermo          100
run             100
Per MPI rank memory allocation (min/avg/max) = 5.513 | 5.513 | 5.513 Mbytes
Step Temp Press PotEng KinEng 
    1600            1 -0.0050957229     20.50768        1.485 
    1700   0.99633871 -0.010583231      20.5729     1.479563 
Loop time of 0.001333 on 1 procs for 100 steps with 100 atoms

Performance: 32408143.946 tau/day, 75018.852 timesteps/s
99.7% CPU use with 1 MPI tasks x 1 OpenMP threads

MPI task timing breakdown:
Section |  min time  |  avg time  |  max time  |%varavg| %total
---------------------------------------------------------------
Pair    | 0.00043344 | 0.00043344 | 0.00043344 |   0.0 | 32.52
Bond    | 0.00017166 | 0.00017166 | 0.00017166 |   0.0 | 12.88
Neigh   | 0          | 0          | 0          |   0.0 |  0.00
Comm    | 9.3937e-05 | 9.3937e-05 | 9.3937e-05 |   0.0 |  7.05
Output  | 5.9605e-06 | 5.9605e-06 | 5.9605e-06 |   0.0 |  0.45
Modify  | 0.0005827  | 0.0005827  | 0.0005827  |   0.0 | 43.71
Other   |            | 4.53e-05   |            |       |  3.40

Nlocal:    100 ave 100 max 100 min
Histogram: 1 0 0 0 0 0 0 0 0 0
Nghost:    237 ave 237 max 237 min
Histogram: 1 0 0 0 0 0 0 0 0 0
Neighs:    1170 ave 1170 max 1170 min
Histogram: 1 0 0 0 0 0 0 0 0 0

Total # of neighbors = 1170
Ave neighs/atom = 11.7
Ave special neighs/atom = 1.98
Neighbor list builds = 0
Dangerous builds = 0
unfix 1
unfix 2

pair_style    lj/cut/soft 1.0 1.0 1.5
pair_coeff    1 2 0.2 0.9009999999999999 0.1
pair_style    lj/cut/soft 1.0 1.0 1.5
pair_coeff    1 1 0.2 0.9009999999999999 0.1
pair_style    lj/cut/soft 1.0 1.0 1.5
pair_coeff    2 2 0.5 0.9009999999999999 0.1
velocity        all create 1.0 52690
fix             1 all nve/limit 1.5
fix             2 all langevin 1.0 1.0 10 52690
thermo_style    custom step temp press pe ke
thermo          100
run             100
Per MPI rank memory allocation (min/avg/max) = 5.513 | 5.513 | 5.513 Mbytes
Step Temp Press PotEng KinEng 
    1700            1 -0.010537599    20.572018        1.485 
    1800    1.0078786 -0.0054280963    20.589118    1.4966998 
Loop time of 0.0013361 on 1 procs for 100 steps with 100 atoms

Performance: 32332964.454 tau/day, 74844.825 timesteps/s
99.8% CPU use with 1 MPI tasks x 1 OpenMP threads

MPI task timing breakdown:
Section |  min time  |  avg time  |  max time  |%varavg| %total
---------------------------------------------------------------
Pair    | 0.00042343 | 0.00042343 | 0.00042343 |   0.0 | 31.69
Bond    | 0.00016689 | 0.00016689 | 0.00016689 |   0.0 | 12.49
Neigh   | 0          | 0          | 0          |   0.0 |  0.00
Comm    | 0.00010538 | 0.00010538 | 0.00010538 |   0.0 |  7.89
Output  | 7.8678e-06 | 7.8678e-06 | 7.8678e-06 |   0.0 |  0.59
Modify  | 0.00059247 | 0.00059247 | 0.00059247 |   0.0 | 44.34
Other   |            | 4.005e-05  |            |       |  3.00

Nlocal:    100 ave 100 max 100 min
Histogram: 1 0 0 0 0 0 0 0 0 0
Nghost:    239 ave 239 max 239 min
Histogram: 1 0 0 0 0 0 0 0 0 0
Neighs:    1166 ave 1166 max 1166 min
Histogram: 1 0 0 0 0 0 0 0 0 0

Total # of neighbors = 1166
Ave neighs/atom = 11.66
Ave special neighs/atom = 1.98
Neighbor list builds = 0
Dangerous builds = 0
unfix 1
unfix 2

pair_style    lj/cut/soft 1.0 1.0 1.5
pair_coeff    1 2 0.2 0.9504999999999999 0.1
pair_style    lj/cut/soft 1.0 1.0 1.5
pair_coeff    1 1 0.2 0.9504999999999999 0.1
pair_style    lj/cut/soft 1.0 1.0 1.5
pair_coeff    2 2 0.5 0.9504999999999999 0.1
velocity        all create 1.0 52690
fix             1 all nve/limit 1.5
fix             2 all langevin 1.0 1.0 10 52690
thermo_style    custom step temp press pe ke
thermo          100
run             100
Per MPI rank memory allocation (min/avg/max) = 5.513 | 5.513 | 5.513 Mbytes
Step Temp Press PotEng KinEng 
    1800            1 -0.0055277267    20.588332        1.485 
    1900   0.97120937  0.013973345    20.631057    1.4422459 
Loop time of 0.00150299 on 1 procs for 100 steps with 100 atoms

Performance: 28742692.386 tau/day, 66534.010 timesteps/s
99.7% CPU use with 1 MPI tasks x 1 OpenMP threads

MPI task timing breakdown:
Section |  min time  |  avg time  |  max time  |%varavg| %total
---------------------------------------------------------------
Pair    | 0.00046945 | 0.00046945 | 0.00046945 |   0.0 | 31.23
Bond    | 0.00018764 | 0.00018764 | 0.00018764 |   0.0 | 12.48
Neigh   | 0          | 0          | 0          |   0.0 |  0.00
Comm    | 0.00011992 | 0.00011992 | 0.00011992 |   0.0 |  7.98
Output  | 8.1062e-06 | 8.1062e-06 | 8.1062e-06 |   0.0 |  0.54
Modify  | 0.00067496 | 0.00067496 | 0.00067496 |   0.0 | 44.91
Other   |            | 4.292e-05  |            |       |  2.86

Nlocal:    100 ave 100 max 100 min
Histogram: 1 0 0 0 0 0 0 0 0 0
Nghost:    244 ave 244 max 244 min
Histogram: 1 0 0 0 0 0 0 0 0 0
Neighs:    1155 ave 1155 max 1155 min
Histogram: 1 0 0 0 0 0 0 0 0 0

Total # of neighbors = 1155
Ave neighs/atom = 11.55
Ave special neighs/atom = 1.98
Neighbor list builds = 0
Dangerous builds = 0
unfix 1
unfix 2

pair_style    lj/cut/soft 1.0 1.0 1.5
pair_coeff    1 2 0.2 0.9999999999999999 0.1
pair_style    lj/cut/soft 1.0 1.0 1.5
pair_coeff    1 1 0.2 0.9999999999999999 0.1
pair_style    lj/cut/soft 1.0 1.0 1.5
pair_coeff    2 2 0.5 0.9999999999999999 0.1
velocity        all create 1.0 52690
fix             1 all nve/limit 1.5
fix             2 all langevin 1.0 1.0 10 52690
thermo_style    custom step temp press pe ke
thermo          100
run             100
Per MPI rank memory allocation (min/avg/max) = 5.513 | 5.513 | 5.513 Mbytes
Step Temp Press PotEng KinEng 
    1900            1  0.014326813    20.630536        1.485 
    2000    0.9621314 -0.0067396872    20.585926    1.4287651 
Loop time of 0.00148892 on 1 procs for 100 steps with 100 atoms

Performance: 29014240.641 tau/day, 67162.594 timesteps/s
99.5% CPU use with 1 MPI tasks x 1 OpenMP threads

MPI task timing breakdown:
Section |  min time  |  avg time  |  max time  |%varavg| %total
---------------------------------------------------------------
Pair    | 0.0004828  | 0.0004828  | 0.0004828  |   0.0 | 32.43
Bond    | 0.00019169 | 0.00019169 | 0.00019169 |   0.0 | 12.87
Neigh   | 0          | 0          | 0          |   0.0 |  0.00
Comm    | 9.2983e-05 | 9.2983e-05 | 9.2983e-05 |   0.0 |  6.24
Output  | 1.3113e-05 | 1.3113e-05 | 1.3113e-05 |   0.0 |  0.88
Modify  | 0.00065923 | 0.00065923 | 0.00065923 |   0.0 | 44.28
Other   |            | 4.911e-05  |            |       |  3.30

Nlocal:    100 ave 100 max 100 min
Histogram: 1 0 0 0 0 0 0 0 0 0
Nghost:    240 ave 240 max 240 min
Histogram: 1 0 0 0 0 0 0 0 0 0
Neighs:    1167 ave 1167 max 1167 min
Histogram: 1 0 0 0 0 0 0 0 0 0

Total # of neighbors = 1167
Ave neighs/atom = 11.67
Ave special neighs/atom = 1.98
Neighbor list builds = 0
Dangerous builds = 0
unfix 1
unfix 2



#---------------------------------------------------------------------------------------------------
# EQUILIBRATION STAGE 1
#---------------------------------------------------------------------------------------------------
velocity        all create 1.0 58841
fix             1 all nve/limit 1.5
fix             2 all langevin 1.0 1.0 10.0 58841
thermo_style    custom step temp press pe ke
thermo          100
run             100000
Per MPI rank memory allocation (min/avg/max) = 5.513 | 5.513 | 5.513 Mbytes
Step Temp Press PotEng KinEng 
    2000            1 -0.0062710632    20.585926        1.485 
    2100    1.1091174 -0.018495135    20.523066    1.6470393 
    2200    1.0888896 0.0031060469    20.541692     1.617001 
    2300    1.0814072 -0.0022659705    20.527762    1.6058897 
    2400    1.0708976 0.00072511828    20.441834     1.590283 
    2500    1.0751607 -0.011549296    20.466951    1.5966137 
    2600   0.99287836 0.0011480176    20.530342    1.4744244 
    2700    1.0139397 0.00072048571      20.5588    1.5057005 
    2800     1.043565 -0.0091341719    20.553775     1.549694 
    2900   0.93057468 -0.0016538519    20.736051    1.3819034 
    3000    1.0259853 -0.0062479173    20.536399    1.5235881 
    3100   0.98080757 -0.015226865    20.627544    1.4564992 
    3200   0.97966207 -0.0011273457    20.648262    1.4547982 
    3300   0.99043703  0.010873936    20.586187     1.470799 
    3400    1.0125761 0.0099913856    20.653183    1.5036755 
    3500    1.0966594 -0.022389464    20.608067    1.6285392 
    3600    1.0951237 0.0059319444    20.568212    1.6262587 
    3700    1.1321851  0.009117173    20.497609    1.6812949 
    3800    1.0794155 0.0056547793    20.542213    1.6029321 
    3900    1.0591682 -0.0029030174    20.523202    1.5728648 
    4000    1.0503242  0.013321254    20.511859    1.5597314 
    4100    1.1252333  0.030642798    20.383334    1.6709714 
    4200   0.96749617  0.013076297    20.547905    1.4367318 
    4300   0.97853022 0.0087512821    20.452241    1.4531174 
    4400    1.0416184 -0.0069207187    20.342539    1.5468034 
    4500   0.94061315 -0.0082981727     20.49135    1.3968105 
    4600   0.92063392  0.018768058    20.498592    1.3671414 
    4700   0.91105976 -0.0030081989    20.563683    1.3529237 
    4800    0.9508712  0.020983083    20.414141    1.4120437 
    4900    0.8576685 0.0035913332    20.457375    1.2736377 
    5000   0.89850683 -0.0062110279    20.428814    1.3342826 
    5100   0.89883559  0.015979502    20.424187    1.3347709 
    5200   0.87956528 -0.012510776    20.515513    1.3061544 
    5300   0.85800687  0.010595161     20.50496    1.2741402 
    5400   0.88786247 0.00065914502    20.430369    1.3184758 
    5500   0.86539332  0.012661778    20.403794    1.2851091 
    5600   0.83055337 0.0093439065    20.412824    1.2333718 
    5700   0.85521251 -0.0032686489    20.423023    1.2699906 
    5800   0.90158918 -0.017989799    20.343437    1.3388599 
    5900   0.90779818 -0.0060304855    20.445444    1.3480803 
    6000   0.95802934 0.0059482447    20.425177    1.4226736 
    6100    1.0163714 0.00015360142    20.338806    1.5093115 
    6200    1.0289712  0.010886479    20.391675    1.5280222 
    6300    1.0060952  0.019918896    20.458693    1.4940513 
    6400    1.0031567 -0.0034233157    20.408021    1.4896877 
    6500    1.0259235  0.020576307    20.427062    1.5234964 
    6600    1.0294361  0.020659945    20.362514    1.5287126 
    6700    1.0138972  0.011729598    20.435622    1.5056374 
    6800    1.0144223  -0.01717545     20.40837    1.5064171 
    6900   0.99581067 0.00027668143    20.436321    1.4787788 
    7000    1.0354587 0.0051840265    20.411037    1.5376561 
    7100    1.0311643 -0.0035511367    20.394061     1.531279 
    7200   0.93757596  0.011881566     20.49715    1.3923003 
    7300    1.0433735  0.015111073    20.306088    1.5494096 
    7400   0.98629598 -0.0055605032    20.385121    1.4646495 
    7500   0.93063063  0.030839468    20.436331    1.3819865 
    7600    1.0251521 -0.0083035374    20.406955    1.5223508 
    7700    1.0554312  0.014265736    20.401288    1.5673154 
    7800   0.99866429 -0.0055788573    20.426364    1.4830165 
    7900   0.94784669 -0.0029670671    20.488868    1.4075523 
    8000   0.98029728 0.0055368323    20.507473    1.4557415 
    8100     1.011097 0.0017956225    20.421901     1.501479 
    8200   0.87828686 -0.020266497    20.560379     1.304256 
    8300   0.85034546 -0.015163107     20.56289     1.262763 
    8400   0.88377325   0.01632732    20.490747    1.3124033 
    8500    0.8296063 -0.0020067597    20.575447    1.2319654 
    8600    0.8938788  0.014142054    20.456276      1.32741 
    8700   0.83129572 -0.0090357858    20.546394    1.2344741 
    8800    0.8929517 -0.010842816    20.489014    1.3260333 
    8900   0.92713514  0.017798224    20.517174    1.3767957 
    9000    1.0152894  0.001206708    20.385002    1.5077048 
    9100    1.0494593  0.016290576      20.3342    1.5584471 
    9200   0.95265144 -0.010974861     20.40605    1.4146874 
    9300   0.93721212 0.0027145787    20.529247      1.39176 
    9400   0.93980265 -0.0085772442    20.476656    1.3956069 
    9500   0.95395438 -0.0057963615    20.474162    1.4166222 
    9600   0.95964953 -0.0078090534    20.479072    1.4250795 
    9700    1.0067262 -0.020681088    20.439582    1.4949884 
    9800    1.0397446  0.017077594    20.377276    1.5440208 
    9900   0.98066976 -0.0071651567    20.431217    1.4562946 
   10000   0.99477325  0.014050157    20.383604    1.4772383 
   10100    1.0424876 -0.0011979729     20.31687     1.548094 
   10200    0.9519313  0.016253159    20.407638     1.413618 
   10300    1.0348569  0.010065564    20.352569    1.5367625 
   10400   0.97138142 -0.018264947    20.388301    1.4425014 
   10500   0.88631652 -0.0054001001    20.486708      1.31618 
   10600   0.96010187  0.015830362    20.400438    1.4257513 
   10700   0.90605398 -0.017587991    20.467297    1.3454902 
   10800   0.90598815 -0.0059994072    20.470881    1.3453924 
   10900    0.9498298 -0.0027366194    20.416024    1.4104973 
   11000   0.91617512 0.0071060111    20.520194    1.3605201 
   11100   0.98458981 0.0012266778    20.441441    1.4621159 
   11200    1.0342822  0.015525166    20.452126     1.535909 
   11300    1.1056432 -0.015022562    20.375022    1.6418802 
   11400    1.0663649 -0.016810628    20.471277    1.5835519 
   11500    1.0204459 0.0092900866    20.528358    1.5153621 
   11600    1.0468479 0.0055791759    20.538536    1.5545692 
   11700    1.0069232 -0.0095497661      20.5396    1.4952809 
   11800    1.0055172 0.0013816778    20.520672     1.493193 
   11900   0.99406224 0.0022224074    20.467034    1.4761824 
   12000    1.0348239 -0.009603288    20.453101    1.5367134 
   12100   0.94807087 -0.017317689    20.498465    1.4078852 
   12200   0.97917288  0.011154969    20.471629    1.4540717 
   12300    1.0072523  0.019757496    20.475137    1.4957697 
   12400   0.90626158  0.013803969    20.637638    1.3457984 
   12500   0.90165429 -0.0053306004    20.648827    1.3389566 
   12600    1.0074572 -0.0045228412    20.559011     1.496074 
   12700    1.0693647 -0.0036426433    20.445948    1.5880066 
   12800    1.0656645  0.020759472     20.49041    1.5825118 
   12900    1.1384596 -0.0010857802    20.318218    1.6906125 
   13000   0.97144843  0.016109191    20.501085    1.4426009 
   13100   0.98202151 -0.0056093515     20.44093    1.4583019 
   13200   0.97447299  0.004163604    20.484777    1.4470924 
   13300    1.0744324 -0.013427911    20.444473    1.5955321 
   13400    1.0062454  0.001414155    20.539596    1.4942744 
   13500    1.0023159  0.010619393    20.515185    1.4884391 
   13600    1.0571487 -0.022748838    20.447133    1.5698658 
   13700    1.0468751 0.0087378279    20.502272    1.5546095 
   13800    1.0505505 -0.0090293497     20.49928    1.5600675 
   13900    1.1074013 -0.0052806687    20.383298    1.6444909 
   14000    1.0152993  0.010962734    20.494334    1.5077194 
   14100    1.0711869  0.013993121    20.451272    1.5907125 
   14200    1.0496706 0.00031038604    20.478479    1.5587609 
   14300    1.0878951 0.0046805841    20.442016    1.6155242 
   14400    1.0638545  0.017485765    20.488858    1.5798239 
   14500    1.0712023 0.00053496882    20.425274    1.5907355 
   14600    1.0111155 -0.0051392371    20.509823    1.5015065 
   14700   0.99155356  -0.02698885    20.538929     1.472457 
   14800    1.0730916 0.0047991844    20.450396     1.593541 
   14900    1.0203576  0.004902487    20.512987     1.515231 
   15000    1.0972101 -0.0063770021    20.421043     1.629357 
   15100    1.0418006  0.012433957    20.538062    1.5470739 
   15200    1.1139488 -0.010290846    20.421227     1.654214 
   15300   0.93689632 -0.014925917    20.694022     1.391291 
   15400    1.0763438 -0.016086916    20.501395    1.5983705 
   15500    1.0017474 -0.019252691    20.565788    1.4875949 
   15600    1.0629953  0.016917894    20.568082     1.578548 
   15700    1.0984129 0.0030203698    20.599838    1.6311431 
   15800    1.1656715 0.0017416896     20.53715    1.7310221 
   15900    1.1658659 -0.011952429    20.460905    1.7313109 
   16000    1.1520489 0.0061998763    20.569709    1.7107926 
   16100    1.1882934  0.014923472     20.50699    1.7646157 
   16200    1.1730035 0.0086560521    20.485207    1.7419102 
   16300    1.0162286 -0.024031546    20.694084    1.5090995 
   16400    1.0587124  0.021009509    20.617641    1.5721879 
   16500    1.0870495  0.015699423    20.465793    1.6142685 
   16600   0.95204945  0.017776239    20.583508    1.4137934 
   16700   0.97559009 0.0061536216     20.48395    1.4487513 
   16800    1.0103797  0.013444339     20.38488    1.5004139 
   16900   0.87553865  -0.01632706     20.53117    1.3001749 
   17000   0.94202482 0.0057327921    20.476661    1.3989069 
   17100   0.85556981  0.020942099    20.578489    1.2705212 
   17200   0.94461365 -0.0036634016    20.521134    1.4027513 
   17300   0.89005949 -0.0028323947    20.553643    1.3217383 
   17400    0.9492708 -0.011489502    20.433083    1.4096671 
   17500   0.96512929 -0.016200861    20.450012     1.433217 
   17600   0.94371284 0.0062748456    20.383474    1.4014136 
   17700    1.0167996  0.017508494     20.39853    1.5099474 
   17800   0.99421319 -0.0070856206    20.411712    1.4764066 
   17900   0.84538611 -0.0001494331    20.531041    1.2553984 
   18000   0.96059317 -0.0072039609    20.392385    1.4264809 
   18100   0.94885242 -0.0051189718    20.499973    1.4090458 
   18200   0.89216698 -0.0069325885    20.562919     1.324868 
   18300   0.93407958   -0.0181741    20.492694    1.3871082 
   18400   0.97967828 0.0051656219    20.482477    1.4548222 
   18500   0.97613808  0.018491319    20.616483    1.4495651 
   18600    1.0575019 -6.0485746e-05    20.536937    1.5703904 
   18700     1.015549 -0.033115301    20.544751    1.5080903 
   18800    1.0456485 0.0010922634    20.479436     1.552788 
   18900   0.99932663 0.0042705209    20.495416        1.484 
   19000     1.064001 -0.0044211906    20.472766    1.5800414 
   19100    1.0408854 -0.024281013    20.501598    1.5457148 
   19200    1.0266358 -0.011057991    20.483683    1.5245542 
   19300   0.97859002 -0.0091568872    20.512686    1.4532062 
   19400   0.98088065   0.00445653    20.531997    1.4566078 
   19500   0.91188081 -0.011342155    20.616229     1.354143 
   19600    0.9680485  0.012440027      20.5059     1.437552 
   19700   0.99643053 0.0047035841    20.470837    1.4796993 
   19800   0.95132744  -0.02334196    20.619208    1.4127212 
   19900   0.93408849 -0.012100382    20.540837    1.3871214 
   20000   0.92697373 -0.0029258355    20.499552     1.376556 
   20100   0.91705949 -0.0016369143    20.493128    1.3618333 
   20200   0.84386121  0.024833001    20.558869    1.2531339 
   20300   0.92105356  0.010906949    20.451423    1.3677645 
   20400   0.90794939 0.0016408796    20.463311    1.3483048 
   20500   0.89352504 -0.012819682    20.482415    1.3268847 
   20600   0.92455018  0.010040904    20.545065     1.372957 
   20700   0.96781171 -0.020756421     20.56711    1.4372004 
   20800     1.013049 -0.0014200955    20.475566    1.5043778 
   20900    1.0228241  0.013332113    20.473127    1.5188937 
   21000    0.9990839 -0.022737152     20.54086    1.4836396 
   21100    1.1059547 0.0085152483    20.361003    1.6423428 
   21200    1.0000055 -0.035852298    20.552654    1.4850082 
   21300    1.1058113  0.016801615    20.469319    1.6421298 
   21400    1.0456913  0.013395744    20.541306    1.5528516 
   21500    1.0229066  0.014682173    20.537572    1.5190163 
   21600   0.97502062 -0.015218777    20.569872    1.4479056 
   21700    1.0695953  0.015445119    20.412384    1.5883491 
   21800   0.99256318 0.0076243029    20.476854    1.4739563 
   21900   0.98230302 -0.016220704    20.426074      1.45872 
   22000   0.92255069 0.0039102822    20.602519    1.3699878 
   22100    1.0243514  0.003663543    20.406031    1.5211618 
   22200    1.0305461 -0.0010987965    20.487411    1.5303609 
   22300    1.0456215  0.012646997    20.450075    1.5527479 
   22400   0.95530671 -0.0076456087    20.523842    1.4186305 
   22500    1.0185033  0.020601751    20.498493    1.5124774 
   22600    1.1181283 0.0076846997    20.388136    1.6604205 
   22700    1.0596683 -0.021972807    20.451087    1.5736075 
   22800    1.0848847 0.0091784255    20.428242    1.6110538 
   22900    1.0512423 -0.0062948701    20.389541    1.5610949 
   23000    1.0102688  0.018133827    20.423673    1.5002492 
   23100    1.0028825 -0.0049592105    20.441702    1.4892806 
   23200    1.0761341 -0.0075493972    20.372782    1.5980591 
   23300    1.1084788 0.0097116913    20.355389    1.6460911 
   23400    1.0148059  -0.01217163    20.414985    1.5069867 
   23500    1.0430275   0.01608663    20.367857    1.5488958 
   23600    1.0593517  0.016785339    20.302381    1.5731372 
   23700    1.0209909 0.0045015031    20.368579    1.5161715 
   23800   0.96598968 8.7140822e-05    20.443455    1.4344947 
   23900    1.0365897 -0.024234412    20.447053    1.5393358 
   24000    1.0386547 -0.020326488     20.35922    1.5424022 
   24100   0.98809241 -0.0020456927    20.334967    1.4673172 
   24200   0.92643944 0.0073532892    20.414814    1.3757626 
   24300   0.92172011 -0.0080521643    20.479125    1.3687544 
   24400   0.95481058 0.0081317499    20.402038    1.4178937 
   24500   0.99621207 -0.005294566    20.410269    1.4793749 
   24600     1.054745 0.0001744734    20.378806    1.5662963 
   24700    1.0204965 -0.0087285197     20.43851    1.5154373 
   24800    1.0572057 -0.0021112803    20.396626    1.5699505 
   24900    1.0380514 0.0063870945    20.453096    1.5415063 
   25000    1.1140882 -0.0016249419    20.439841    1.6544209 
   25100    1.0669188 0.0031601716      20.4763    1.5843745 
   25200     1.059763  0.017439785    20.530167     1.573748 
   25300    1.0449874 0.0016546473    20.506399    1.5518063 
   25400    1.0877794 0.0065807302    20.406058    1.6153524 
   25500   0.96414993  0.016516726     20.43536    1.4317626 
   25600   0.89438622 -0.029063284     20.53654    1.3281635 
   25700   0.96608686 -0.0044331129    20.475703     1.434639 
   25800   0.89670634 -0.0049321941    20.510079    1.3316089 
   25900   0.93725432 -0.0025956743    20.527149    1.3918227 
   26000    0.9165508 -0.018737804    20.478346    1.3610779 
   26100   0.85595934 -0.0078962491    20.582137    1.2710996 
   26200   0.88639907  0.013344249    20.451281    1.3163026 
   26300   0.89476896 -6.2570319e-05    20.480701    1.3287319 
   26400   0.91748022 -0.0032558045    20.496095    1.3624581 
   26500   0.91436635 0.0045965394    20.488981     1.357834 
   26600   0.97272325 -0.015491506    20.432026     1.444494 
   26700    1.0109521 -0.0064425995      20.4112    1.5012639 
   26800   0.94272723  0.019355602    20.481663    1.3999499 
   26900   0.96440861 0.0088325436    20.423793    1.4321468 
   27000   0.97913882 0.0036661659    20.389055    1.4540211 
   27100   0.89677796 0.0027030303    20.462647    1.3317153 
   27200    0.8754585 0.0035352792    20.446986    1.3000559 
   27300   0.88486556  0.016235899    20.449098    1.3140254 
   27400   0.97140589  0.015251433    20.353058    1.4425377 
   27500   0.92302873 -0.0031087749    20.368528    1.3706977 
   27600   0.92328777 -0.0097149357    20.336479    1.3710823 
   27700   0.93180199   0.01202214    20.362062     1.383726 
   27800   0.89584944  -0.01810137    20.425746    1.3303364 
   27900   0.87374713 -0.0074557053    20.502483    1.2975145 
   28000     0.845772 -0.021214266    20.504885    1.2559714 
   28100   0.89582568 0.00059274632    20.494161    1.3303011 
   28200   0.93565901 -0.0029420663    20.437137    1.3894536 
   28300   0.94563125 -1.7704196e-05     20.48125    1.4042624 
   28400   0.87103857 -0.014212283    20.587012    1.2934923 
   28500   0.87983233 -0.018277695    20.555635     1.306551 
   28600    0.9450599  0.014852495    20.447166     1.403414 
   28700   0.97209706 0.0061192185    20.412914    1.4435641 
   28800   0.92511118 -0.0057990167    20.516716    1.3737901 
   28900   0.91963064 -0.0078627382    20.488744    1.3656515 
   29000   0.91679714 -0.00016581966    20.532649    1.3614438 
   29100    1.0142748  0.011014854    20.471208     1.506198 
   29200   0.95950868 -0.0082925578    20.555984    1.4248704 
   29300    1.0568311 -0.0088056006    20.424304    1.5693942 
   29400   0.98929296 0.0057660845    20.512943       1.4691 
   29500   0.98664075 -0.0080817284    20.597075    1.4651615 
   29600    1.0176053 0.0047881712    20.574884    1.5111439 
   29700    1.1502716  0.005750082    20.473307    1.7081533 
   29800    1.0592372 -0.0023148236    20.502561    1.5729672 
   29900   0.95601345 0.0051961691    20.631092      1.41968 
   30000    0.9443018 -0.0026350714    20.553845    1.4022882 
   30100   0.94902205  0.015225598    20.490714    1.4092977 
   30200    1.0053248 0.00011494071     20.41259    1.4929073 
   30300   0.96986475 -0.013739316    20.413738    1.4402492 
   30400   0.92516899 -0.012101376    20.514525    1.3738759 
   30500   0.93601086 -0.011003524    20.442223    1.3899761 
   30600   0.92008099 -0.0080599106    20.496734    1.3663203 
   30700    1.0133885  0.017957271    20.422191    1.5048818 
   30800   0.98468447 -0.0002574655    20.433647    1.4622564 
   30900    1.0228149   0.01559214    20.410381    1.5188801 
   31000    1.0180151 0.0030166633    20.508484    1.5117524 
   31100    1.1110132  0.019170645    20.421851    1.6498545 
   31200    1.0854885  0.017374113    20.412254    1.6119503 
   31300    1.0500398 0.0041759906    20.436243    1.5593091 
   31400     1.005915 -0.011356868    20.421424    1.4937838 
   31500   0.97835837 -0.0084594346    20.526471    1.4528622 
   31600   0.98335017 -0.0019917648    20.516468     1.460275 
   31700    1.1150327 -0.0026378863    20.311335    1.6558235 
   31800   0.93256869 -0.026959638    20.573933    1.3848645 
   31900    1.0282881 -0.012984167    20.520752    1.5270079 
   32000   0.95745067  0.014173535    20.583846    1.4218142 
   32100     1.115807 0.0037665629    20.414515    1.6569735 
   32200   0.98521837 -0.014264426    20.622528    1.4630493 
   32300    1.0955626 0.0010046899    20.416884    1.6269105 
   32400   0.94073103  0.014170448     20.58569    1.3969856 
   32500   0.99920683 -0.014902948    20.488685    1.4838221 
   32600    1.0826738 -0.0047068324    20.468991    1.6077706 
   32700    1.0870956 -0.0064694352    20.444248    1.6143369 
   32800     1.065707 -0.0075298657    20.473387    1.5825749 
   32900    1.0053507  -0.00349294    20.523918    1.4929458 
   33000    1.0331652 -0.024368642    20.521693    1.5342504 
   33100    1.0554027  0.027773407    20.430986     1.567273 
   33200      1.05052 -0.0025058192    20.440729    1.5600222 
   33300    1.0603776  0.011027748    20.403784    1.5746607 
   33400    1.0066231 0.0062722813    20.476729    1.4948353 
   33500   0.92695329 -0.014012101    20.566428    1.3765256 
   33600    1.0734084 0.0016128959    20.416981    1.5940114 
   33700    1.0453988   0.02778795    20.429559    1.5524172 
   33800   0.99772375 -0.0081769166    20.465229    1.4816198 
   33900    1.0125681 -0.015468143    20.464075    1.5036636 
   34000    1.0954712 -0.0013427843    20.385555    1.6267747 
   34100   0.99840701 -0.0077770609    20.551683    1.4826344 
   34200   0.91945588  0.010499759    20.600958     1.365392 
   34300   0.94404982 -0.017792762    20.545852     1.401914 
   34400    1.0169996 -0.0029983907    20.471313    1.5102444 
   34500    1.0388527 0.0044063143      20.4188    1.5426963 
   34600    1.0346431 -0.026209521    20.409165    1.5364449 
   34700   0.97056271 -0.024756992    20.465984    1.4412856 
   34800    1.0061387 -0.012684008    20.341939     1.494116 
   34900     1.002471 0.0066746487    20.371583    1.4886695 
   35000   0.99447875 -0.012983751    20.430922    1.4768009 
   35100    1.0485053 0.0071911677    20.407565    1.5570303 
   35200    1.0867355 -0.0034674137     20.34412    1.6138022 
   35300   0.99684495 -0.015339524     20.49654    1.4803148 
   35400    1.0501977 0.0082151262    20.352813    1.5595436 
   35500   0.96298879  0.023214762     20.44326    1.4300384 
   35600    1.0087416 -0.0056241034    20.395647    1.4979813 
   35700   0.97339985   0.02850216    20.369708    1.4454988 
   35800    0.9382607 -0.003206674    20.358072    1.3933171 
   35900   0.94927266 -0.010608152    20.370641    1.4096699 
   36000   0.94970883  0.005889613     20.36294    1.4103176 
   36100    1.0049069 0.00063560037    20.365521    1.4922868 
   36200   0.95637365  0.020789934    20.423278    1.4202149 
   36300   0.95149773 0.0059378299    20.410172    1.4129741 
   36400   0.90111073 0.0032785491    20.461329    1.3381494 
   36500   0.98375298 0.0060173917    20.470189    1.4608732 
   36600   0.91132268 -0.020276117    20.534606    1.3533142 
   36700   0.94235931 -0.016405033    20.409485    1.3994036 
   36800   0.88976426 -0.0031606437    20.449421    1.3212999 
   36900   0.86425134 -0.015009232    20.560824    1.2834132 
   37000   0.88762993 -0.018220937    20.473964    1.3181304 
   37100   0.85228338  0.021481374    20.454781    1.2656408 
   37200   0.87418979 0.0042966051    20.507007    1.2981718 
   37300   0.84532064 0.0088474426    20.570418    1.2553011 
   37400   0.94256357 0.0071705527    20.513154    1.3997069 
   37500   0.97012965 -0.0089395425    20.456198    1.4406425 
   37600   0.98335827  0.005249421    20.487884     1.460287 
   37700     1.021092 -0.0052643399    20.514054    1.5163217 
   37800    1.0511065 -0.014731512    20.557368    1.5608931 
   37900    1.1018587  0.011511226    20.474081    1.6362602 
   38000    1.0183491 -0.00099520515    20.592502    1.5122484 
   38100    1.0245298  0.016494351    20.574406    1.5214267 
   38200   0.99414232  0.016908835    20.518558    1.4763013 
   38300   0.97065284  0.010183024    20.513596    1.4414195 
   38400    1.0614709  0.011127324    20.483043    1.5762843 
   38500    1.0520401 -0.00015815014    20.540456    1.5622795 
   38600    1.0823918 -0.019711935    20.483034    1.6073518 
   38700    1.0568962 -0.007579306    20.491406    1.5694908 
   38800    1.0304337  0.013133187     20.56898     1.530194 
   38900    1.1443243  -0.01018684    20.435507    1.6993216 
   39000    1.0580939 0.0075388149    20.620169    1.5712694 
   39100    1.0450766 -0.0033880946    20.492787    1.5519388 
   39200    1.0124273 -0.012093564    20.563773    1.5034546 
   39300    1.0850766 -0.0072572021    20.385528    1.6113387 
   39400   0.93841973 -0.036431778    20.548987    1.3935533 
   39500     1.066948  0.010395408     20.44501    1.5844178 
   39600    1.0620221 0.0027980442    20.469235    1.5771028 
   39700    1.0022988 -0.0068493836    20.525738    1.4884138 
   39800    1.0677602 0.0024816159      20.4701     1.585624 
   39900    1.0198023 -0.021806625    20.503659    1.5144064 
   40000   0.98049381 -0.0013169297    20.547575    1.4560333 
   40100   0.95842814 0.0089236147    20.509251    1.4232658 
   40200    1.0612656 -0.014489999     20.42906    1.5759795 
   40300    1.0750931 0.0052023508    20.478775    1.5965133 
   40400    1.1450797 -0.002193982    20.405378    1.7004434 
   40500    1.0864041 8.7088228e-05    20.488953      1.61331 
   40600    1.0488265 0.0048226216    20.486324    1.5575074 
   40700   0.99941654  0.021837383    20.495519    1.4841336 
   40800   0.94664999 -0.018898315     20.57753    1.4057752 
   40900    0.9972369 -0.0072177055    20.507888    1.4808968 
   41000    1.0847851  0.012444883    20.462832    1.6109059 
   41100    1.0976754 -0.015063801    20.536824    1.6300479 
   41200    1.2279283  0.014076881    20.399295    1.8234735 
   41300    1.1316014 0.0077059288     20.58057    1.6804281 
   41400    1.1237215 0.0023163678    20.525976    1.6687264 
   41500    1.1606939 -0.014642669    20.473107    1.7236305 
   41600    1.1144726 0.00020939752    20.583797    1.6549918 
   41700    1.1584784 0.0073618671    20.504699    1.7203404 
   41800    1.1730617 -0.0054987164    20.489102    1.7419967 
   41900    1.1530709  0.023864588    20.547326    1.7123102 
   42000    1.1269565  0.020403379    20.499924    1.6735304 
   42100    1.1907051 -0.005487465    20.390295    1.7681971 
   42200     1.095702 -0.0078931975    20.497868    1.6271174 
   42300    1.1076212 -0.0061216939    20.468091    1.6448175 
   42400     1.130775  0.015079345    20.487107    1.6792009 
   42500    1.1169563 0.0023345343    20.509063    1.6586801 
   42600    1.0668552 -0.003461928    20.654279    1.5842799 
   42700    1.1729852  0.008756118    20.499305     1.741883 
   42800    1.0976292 0.0090551983    20.593598    1.6299794 
   42900    1.1201491 -0.020088269     20.56767    1.6634215 
   43000     1.144407 0.0036052417    20.432163    1.6994444 
   43100   0.99772641 -0.034093644    20.691361    1.4816237 
   43200    1.0954326 -0.0070623945    20.516153    1.6267174 
   43300     1.100154 0.0058227979     20.51228    1.6337287 
   43400    1.1833103 -0.016108757    20.422944    1.7572158 
   43500    1.1224866 0.0049729258     20.51819    1.6668926 
   43600    1.1919409 -0.020960176    20.422049    1.7700323 
   43700    1.0979796 0.0017377284     20.48418    1.6304997 
   43800    1.0667344 -0.008600221    20.528252    1.5841006 
   43900    1.0530797 -0.0063464383    20.494537    1.5638233 
   44000    1.0403599 -0.0021872114    20.462077    1.5449345 
   44100     1.034783  0.020917903    20.451034    1.5366528 
   44200   0.94356516 0.0052982862     20.65894    1.4011943 
   44300    1.0844806 -0.0031555054    20.546284    1.6104536 
   44400    1.1443402  0.009018211     20.49577    1.6993453 
   44500    1.1892242 0.0030901778    20.474644    1.7659979 
   44600    1.2420832   0.01306796    20.432833    1.8444935 
   44700    1.1383761 -0.019483023    20.491203    1.6904885 
   44800    1.1355194 0.00095268048    20.511529    1.6862464 
   44900    1.2034019 -0.0066780802    20.426872    1.7870518 
   45000    1.0457714 -0.032064271    20.630362    1.5529706 
   45100    1.1287361 0.0055323847    20.488641    1.6761731 
   45200    1.0892593 0.0090269759    20.548933      1.61755 
   45300    1.1164089 -0.0070819079    20.472676    1.6578673 
   45400    1.1429701 0.0063169359    20.474719    1.6973106 
   45500    1.0218735  -0.01247522    20.554493    1.5174822 
   45600    1.0357526 0.0098422148    20.472139    1.5380926 
   45700    1.0296928 0.0072754816    20.481739    1.5290938 
   45800     1.006652 -0.012262002     20.53484    1.4948782 
   45900   0.94589452 -0.021219467    20.622859    1.4046534 
   46000    1.0530248 -0.0076482372    20.477463    1.5637418 
   46100    1.1660868  -0.00642671    20.412258    1.7316389 
   46200    1.0506645  -0.01472787    20.592717    1.5602368 
   46300    1.1399611 -0.0038884378      20.4952    1.6928423 
   46400    1.1735285  0.018669207    20.399898    1.7426899 
   46500    1.0395081 -6.3112883e-05    20.569269    1.5436695 
   46600    1.1222211 -0.011917278    20.435498    1.6664984 
   46700    1.1343631 -0.0093388641    20.432663    1.6845291 
   46800     1.129144 -0.014290781       20.414    1.6767788 
   46900    1.0497894 -0.0038722423    20.533547    1.5589372 
   47000    1.0785507 0.0074205351    20.472319    1.6016478 
   47100    1.0900774 -0.012059852    20.465839    1.6187649 
   47200    1.1228594  0.013271436    20.447556    1.6674462 
   47300     1.105876 -0.0047139163    20.471974    1.6422259 
   47400    1.0470997 0.0028142894    20.574293    1.5549431 
   47500    1.1011512 0.0036297617    20.336628    1.6352095 
   47600    1.0422183 -0.0047842747    20.381511    1.5476942 
   47700    1.0221877  0.025315664    20.381574    1.5179488 
   47800    1.0390783 -0.0063210262    20.374461    1.5430313 
   47900   0.95908869 0.0065801831     20.45209    1.4242467 
   48000   0.89969686 -0.00052205087    20.505817    1.3360498 
   48100   0.93383966 0.0026758973    20.432573    1.3867519 
   48200   0.90955439  0.017434537    20.397751    1.3506883 
   48300     0.906685 -0.0054877992    20.399759    1.3464272 
   48400   0.91209532  0.018348645    20.397865    1.3544616 
   48500   0.96516187 -0.013840935    20.421138    1.4332654 
   48600   0.98284984 -0.0046716477    20.362538     1.459532 
   48700    1.0182306 -0.00027141115    20.305272    1.5120724 
   48800   0.92021308 -0.010767322    20.427344    1.3665164 
   48900    1.0066135 -0.0081892096    20.304172    1.4948211 
   49000   0.96823736 0.00096475693    20.388825    1.4378325 
   49100    1.0689549 -0.0023558481    20.326234     1.587398 
   49200   0.96654494  0.015576089    20.487917    1.4353192 
   49300   0.97178233  0.016250832    20.431666    1.4430968 
   49400   0.96869178  0.021244039    20.469838    1.4385073 
   49500   0.98107818 -0.0073401132    20.449358    1.4569011 
   49600   0.99981778 0.0008354395    20.418944    1.4847294 
   49700   0.94191488 0.0049880421    20.478206    1.3987436 
   49800   0.94228093  -0.01393568    20.498317    1.3992872 
   49900   0.91495144 0.0010652354    20.481988    1.3587029 
   50000   0.90822316 -0.0078560445    20.434878    1.3487114 
   50100   0.92860633 0.0087279018    20.452056    1.3789804 
   50200   0.92163801 0.00059576702    20.409599    1.3686324 
   50300   0.96045141 0.0054807647    20.385509    1.4262703 
   50400   0.93176902 -0.00069665949    20.411913     1.383677 
   50500   0.92514098 -0.018677328    20.502467    1.3738344 
   50600    0.9854206 0.00021183986    20.452014    1.4633496 
   50700   0.92248548 0.0031899681    20.479341    1.3698909 
   50800   0.94014771 -0.0069951126    20.496465    1.3961193 
   50900    1.0723907  0.010250035    20.418679    1.5925002 
   51000     1.026266  0.011090037    20.467616     1.524005 
   51100    1.0071721 -0.010989135    20.443856    1.4956506 
   51200   0.99793726  -0.01651922    20.433971    1.4819368 
   51300    1.0317843 0.0078730014    20.398038    1.5321997 
   51400   0.98506322 0.0047535088     20.45671    1.4628189 
   51500    1.0125065 -0.00097326271    20.437031    1.5035721 
   51600    1.0052997  -0.02850191    20.467088      1.49287 
   51700    1.0871265 -0.003157235    20.378661    1.6143828 
   51800   0.99569015 0.0074116473    20.527247    1.4785999 
   51900    1.0839381 0.0033878074    20.416568     1.609648 
   52000    1.0580919 -0.0041626364    20.457709    1.5712665 
   52100    1.0678944 0.0016651306     20.52757    1.5858232 
   52200    1.1416209 -0.033160154    20.423519     1.695307 
   52300    1.0718508  0.009416281    20.562955    1.5916984 
   52400    1.0669581  0.015017583    20.600761    1.5844327 
   52500    1.0907374 -0.0026769985    20.486533     1.619745 
   52600    1.1023598  0.034929729    20.475393    1.6370043 
   52700    1.0686729 -0.010011894    20.573158    1.5869792 
   52800    1.0872202 0.0046535232    20.455978     1.614522 
   52900     1.031179 -0.0023601246    20.493351    1.5313008 
   53000   0.98505257 -0.0079512306    20.547616    1.4628031 
   53100    1.0364369 -0.005537744    20.423591    1.5391089 
   53200    1.0096939 -0.0014914352    20.459733    1.4993954 
   53300   0.99439892 -0.0013791233    20.548066    1.4766824 
   53400    1.0786796 -0.012778383    20.400833    1.6018392 
   53500    0.9723623 -0.0036788917     20.50273     1.443958 
   53600   0.97588353 -0.0096436132    20.363783     1.449187 
   53700   0.92000717 -0.0090723157    20.426462    1.3662107 
   53800    0.9280764 0.0048078141    20.440382    1.3781935 
   53900   0.96406767  0.020481879    20.395063    1.4316405 
   54000   0.95071231 -0.012594745    20.387062    1.4118078 
   54100   0.91229247 -0.0093769876     20.47673    1.3547543 
   54200   0.96701487 -0.0018004745     20.44739    1.4360171 
   54300   0.93778015 -0.0067378811    20.417965    1.3926035 
   54400   0.96818062 0.0055087502    20.401293    1.4377482 
   54500   0.99610116 0.0059058745    20.354108    1.4792102 
   54600   0.99092508  -0.01096824    20.373926    1.4715237 
   54700    1.0040443 -0.0030183649    20.426064    1.4910057 
   54800    1.0408545 -0.0038576824    20.407248     1.545669 
   54900    1.0167059 -0.0039402983    20.383176    1.5098083 
   55000    1.0169235 -0.0074335886    20.427179    1.5101314 
   55100   0.98991978 -0.018987457    20.490629    1.4700309 
   55200    1.0369693 -0.0011398976    20.414395    1.5398993 
   55300    1.0454545 0.0048682388    20.498628       1.5525 
   55400    1.0746741 -0.013351599    20.402746    1.5958911 
   55500    1.0556534 -0.0085312657    20.430636    1.5676453 
   55600    1.0341028  0.016815289    20.415557    1.5356427 
   55700    1.0853867 0.0013121856    20.375228    1.6117992 
   55800    1.0518779  0.026340434    20.422357    1.5620386 
   55900    1.1059136 -0.00095286625    20.370285    1.6422817 
   56000    1.1529461 0.0017503332      20.3957     1.712125 
   56100    1.1642079  0.023595511    20.415027    1.7288487 
   56200    1.1261065 -0.0054851495    20.434671    1.6722682 
   56300    1.1060965 -0.0077517866    20.407293    1.6425534 
   56400    1.0607035 -0.0092894764    20.501981    1.5751447 
   56500    1.0073926 -0.0075779669    20.550402    1.4959781 
   56600    1.0411654 0.0060467912    20.509048    1.5461306 
   56700    1.0561174 -0.001331241    20.388668    1.5683343 
   56800     1.030936 0.00082572463    20.363541      1.53094 
   56900    1.0063176 -0.0068217542    20.449282    1.4943817 
   57000   0.96615065 -0.006944456    20.354459    1.4347337 
   57100   0.85473225 -0.0024787756    20.514184    1.2692774 
   57200   0.87746231 0.0024353224    20.518924    1.3030315 
   57300   0.84483537  0.001309453    20.572408    1.2545805 
   57400   0.91898115 -0.013637593    20.443565     1.364687 
   57500   0.85804242 0.0082765533     20.51334     1.274193 
   57600   0.92408636 0.0011819063    20.480564    1.3722682 
   57700   0.99791471   0.01009103    20.459847    1.4819034 
   57800   0.91415411 0.0091261786    20.600466    1.3575189 
   57900   0.95815519 -0.014862854    20.435979    1.4228605 
   58000    1.0085072  0.020406588    20.390203    1.4976332 
   58100    0.9769701 -0.0044515941    20.445026    1.4508006 
   58200    1.0055956 -0.00023519228    20.419607    1.4933094 
   58300    1.0567856 0.0031414352    20.436799    1.5693265 
   58400    1.0012294 -0.0079620525    20.426876    1.4868257 
   58500    1.0630091 0.00024205722    20.414766    1.5785685 
   58600    1.0738757  -0.03042627    20.410917    1.5947054 
   58700    1.1100241  0.007926713    20.391951    1.6483858 
   58800    1.1203196  0.008009682    20.306726    1.6636746 
   58900     1.054992 -0.018221637     20.50104    1.5666632 
   59000    1.0711217  0.011816261    20.453652    1.5906157 
   59100    1.1000051 -0.0096261055    20.387819    1.6335075 
   59200    1.0633738 -0.0052622516    20.469391      1.57911 
   59300    1.1404105 0.0078204532    20.389971    1.6935096 
   59400     1.117645  0.011987671     20.40534    1.6597028 
   59500    1.1368964   0.01687522    20.415577    1.6882912 
   59600    1.1916552  0.011653841    20.357036     1.769608 
   59700    1.1212373 0.0076166388    20.428661    1.6650373 
   59800    1.1359012  0.006219536    20.302066    1.6868133 
   59900    1.0505488 0.0060039109    20.388678    1.5600649 
   60000    1.0405863  -0.02528046     20.39279    1.5452706 
   60100   0.93611297 -0.012165298     20.41967    1.3901278 
   60200   0.96096691 -0.010568872    20.380124    1.4270359 
   60300   0.96253963  0.031350608    20.421952    1.4293714 
   60400   0.91061064 -0.015358327    20.537501    1.3522568 
   60500   0.98830754 0.0060055733    20.449591    1.4676367 
   60600    1.0677409  0.013789267    20.361605    1.5855953 
   60700   0.92702043 -0.002059816    20.480938    1.3766253 
   60800    1.0329047 -0.008614987    20.396733    1.5338635 
   60900   0.90780341 0.0063961098    20.590539    1.3480881 
   61000    0.9669369 -0.0018802982    20.567751    1.4359013 
   61100     1.041552 0.0030502467    20.498841    1.5467047 
   61200   0.97933992 -0.009761856    20.561167    1.4543198 
   61300    1.0111561 0.0064546349    20.505044    1.5015668 
   61400   0.99429839 -0.001687747    20.506616    1.4765331 
   61500     1.011597 0.0085608284    20.493163    1.5022216 
   61600    1.0160569 -0.032960484     20.54644    1.5088444 
   61700    1.0102674  0.035708549    20.574296    1.5002471 
   61800    1.0097137 -0.0074770855    20.513027    1.4994249 
   61900    1.0358157 -0.0070490674    20.475062    1.5381864 
   62000     1.005828  0.037747829    20.515799    1.4936546 
   62100   0.96443312  0.015243725    20.631831    1.4321832 
   62200    1.0193057 -0.014531889    20.530765     1.513669 
   62300   0.92453269 -0.014900415    20.567536     1.372931 
   62400   0.99402586 0.0065361473    20.387238    1.4761284 
   62500   0.98517079 -0.0068963655    20.384851    1.4629786 
   62600   0.89563609  0.012755572    20.530459    1.3300196 
   62700    0.9836678 -0.010701424    20.446437    1.4607467 
   62800    1.0522667  0.016952476    20.430759    1.5626161 
   62900    1.0300476 -0.0096080106    20.434893    1.5296207 
   63000   0.93675054 -0.0074740936    20.649598    1.3910746 
   63100   0.98575865 -0.009503374    20.513999    1.4638516 
   63200    1.0745461 0.0031098905    20.441365     1.595701 
   63300    1.0995746 -0.006197438    20.478462    1.6328682 
   63400    1.0653955  0.005535965    20.446105    1.5821123 
   63500    1.0183085 -0.0051119669    20.537901    1.5121881 
   63600    1.0011483 -0.0052462245    20.524077    1.4867052 
   63700   0.94790368 0.0014478453    20.501321     1.407637 
   63800   0.97914544 -0.0062018746    20.440614     1.454031 
   63900   0.92747387 -0.0025234147    20.422189    1.3772987 
   64000   0.87915482  0.017013828    20.533561    1.3055449 
   64100   0.88536449 -0.0069428011    20.440961    1.3147663 
   64200   0.92229364  0.014220839    20.415766     1.369606 
   64300   0.92011749 -0.017268043    20.440138    1.3663745 
   64400   0.86574277 0.0088329696    20.502999     1.285628 
   64500   0.96084376 -0.0043978325    20.478709     1.426853 
   64600   0.87355737 -0.025829832    20.510432    1.2972327 
   64700   0.86084715 0.0021999943    20.488254     1.278358 
   64800   0.95069325 0.0027841769    20.368202    1.4117795 
   64900   0.94675559 0.0021764076    20.401835    1.4059321 
   65000   0.92144113  0.021317021    20.492897    1.3683401 
   65100   0.89382087 0.0030989917    20.534451     1.327324 
   65200   0.86053184 0.00016268524    20.549268    1.2778898 
   65300   0.87208008 0.0010548537    20.370254    1.2950389 
   65400   0.84428593   0.01025842    20.446747    1.2537646 
   65500   0.86450392  0.019316016    20.411225    1.2837883 
   65600   0.85345068  -0.01442112    20.407637    1.2673743 
   65700   0.87088487 0.0045915094    20.437639     1.293264 
   65800   0.94689217 0.0077054656    20.366353    1.4061349 
   65900   0.89039778 0.0072846236    20.431037    1.3222407 
   66000   0.95473338 -0.021090507    20.429073    1.4177791 
   66100   0.97940037 -0.0022232977    20.389706    1.4544096 
   66200     1.059981  -0.01283653    20.273892    1.5740717 
   66300   0.92534806 -0.00086253985    20.349945    1.3741419 
   66400    0.8661841 -0.0064763129    20.401323    1.2862834 
   66500   0.85414596 -0.010295022    20.408014    1.2684068 
   66600   0.93149906 -0.0022244427    20.374338    1.3832761 
   66700   0.99159931 -0.0039438383     20.39624     1.472525 
   66800    1.0316318 -0.0042696167    20.433454    1.5319733 
   66900    1.0197762 0.0092147667    20.426927    1.5143676 
   67000    1.0917175 -0.0097368288    20.362983    1.6212005 
   67100     1.042301 -0.015831382    20.465941     1.547817 
   67200    1.0584186  0.009452632     20.44613    1.5717516 
   67300    1.0837149  0.026096348    20.430196    1.6093166 
   67400    1.0951176 -0.018516781    20.409756    1.6262496 
   67500    1.0950682 0.0035232632    20.490232    1.6261763 
   67600    1.0730745 -0.011478904     20.42908    1.5935156 
   67700     1.028938 -0.018337058    20.479202    1.5279729 
   67800    0.9983915 -0.025956534    20.510322    1.4826114 
   67900    1.0238324  0.003639009    20.381969    1.5203911 
   68000    1.0306026 -0.0034184445    20.414871    1.5304448 
   68100   0.99946983 -0.0079064163    20.553724    1.4842127 
   68200    1.0616638 -0.0039800422    20.452512    1.5765708 
   68300    1.1108714  0.006626469    20.364987     1.649644 
   68400   0.97670958 -0.0064773255    20.525694    1.4504137 
   68500    1.0240708 -0.011944769    20.465471    1.5207452 
   68600    1.0467774 0.0023604484     20.49752    1.5544644 
   68700   0.97741243 -0.025678849    20.618541    1.4514575 
   68800    1.0727348 0.0077484107    20.414105    1.5930112 
   68900    1.0851459 -0.001191475    20.401836    1.6114417 
   69000    1.0458777 0.0037457628    20.407991    1.5531284 
   69100    1.0674379 -0.016568785    20.401346    1.5851453 
   69200    1.0425717 -0.018977348    20.421618     1.548219 
   69300     1.073779 0.0072086142    20.358605    1.5945618 
   69400    1.0178948 0.0010958158    20.373976    1.5115737 
[...]
Nghost:    311 ave 311 max 311 min
Histogram: 1 0 0 0 0 0 0 0 0 0
Neighs:    1048 ave 1048 max 1048 min
Histogram: 1 0 0 0 0 0 0 0 0 0

Total # of neighbors = 1048
Ave neighs/atom = 10.48
Ave special neighs/atom = 1.98
Neighbor list builds = 0
Dangerous builds = 0
unfix 1
unfix 2

pair_style    lj/cut/soft 1.0 1.0 1.5
pair_coeff    1 2 0.2 1.0 0.9640000000000007
pair_style    lj/cut/soft 1.0 1.0 1.5
pair_coeff    1 1 0.2 1.0 0.9640000000000007
pair_style    lj/cut/soft 1.0 1.0 1.5
pair_coeff    2 2 0.5 1.0 0.9640000000000007
velocity        all scale 1.0
fix             1 all nve/limit 1.5
fix             2 all langevin 1.0 1.0 1 52690
thermo_style    custom step temp press pe ke
thermo          100
run             100
Per MPI rank memory allocation (min/avg/max) = 5.555 | 5.555 | 5.555 Mbytes
Step Temp Press PotEng KinEng 
  111500            1 -0.0048696974    20.530865        1.485 
  111600    1.0237985 0.0071670507    20.517606    1.5203407 
Loop time of 0.00147796 on 1 procs for 100 steps with 100 atoms

Performance: 29229542.313 tau/day, 67660.978 timesteps/s
99.9% CPU use with 1 MPI tasks x 1 OpenMP threads

MPI task timing breakdown:
Section |  min time  |  avg time  |  max time  |%varavg| %total
---------------------------------------------------------------
Pair    | 0.0004673  | 0.0004673  | 0.0004673  |   0.0 | 31.62
Bond    | 0.00018573 | 0.00018573 | 0.00018573 |   0.0 | 12.57
Neigh   | 0          | 0          | 0          |   0.0 |  0.00
Comm    | 0.00012922 | 0.00012922 | 0.00012922 |   0.0 |  8.74
Output  | 7.1526e-06 | 7.1526e-06 | 7.1526e-06 |   0.0 |  0.48
Modify  | 0.00063372 | 0.00063372 | 0.00063372 |   0.0 | 42.88
Other   |            | 5.484e-05  |            |       |  3.71

Nlocal:    100 ave 100 max 100 min
Histogram: 1 0 0 0 0 0 0 0 0 0
Nghost:    302 ave 302 max 302 min
Histogram: 1 0 0 0 0 0 0 0 0 0
Neighs:    1083 ave 1083 max 1083 min
Histogram: 1 0 0 0 0 0 0 0 0 0

Total # of neighbors = 1083
Ave neighs/atom = 10.83
Ave special neighs/atom = 1.98
Neighbor list builds = 0
Dangerous builds = 0
unfix 1
unfix 2

pair_style    lj/cut/soft 1.0 1.0 1.5
pair_coeff    1 2 0.2 1.0 0.9730000000000008
pair_style    lj/cut/soft 1.0 1.0 1.5
pair_coeff    1 1 0.2 1.0 0.9730000000000008
pair_style    lj/cut/soft 1.0 1.0 1.5
pair_coeff    2 2 0.5 1.0 0.9730000000000008
velocity        all scale 1.0
fix             1 all nve/limit 1.5
fix             2 all langevin 1.0 1.0 1 52690
thermo_style    custom step temp press pe ke
thermo          100
run             100
Per MPI rank memory allocation (min/avg/max) = 5.555 | 5.555 | 5.555 Mbytes
Step Temp Press PotEng KinEng 
  111600            1  0.006882249    20.516748        1.485 
  111700    1.0812509 -0.014388025    20.409562    1.6056577 
Loop time of 0.00150895 on 1 procs for 100 steps with 100 atoms

Performance: 28629156.707 tau/day, 66271.196 timesteps/s
99.5% CPU use with 1 MPI tasks x 1 OpenMP threads

MPI task timing breakdown:
Section |  min time  |  avg time  |  max time  |%varavg| %total
---------------------------------------------------------------
Pair    | 0.00050712 | 0.00050712 | 0.00050712 |   0.0 | 33.61
Bond    | 0.00017428 | 0.00017428 | 0.00017428 |   0.0 | 11.55
Neigh   | 0          | 0          | 0          |   0.0 |  0.00
Comm    | 0.00012755 | 0.00012755 | 0.00012755 |   0.0 |  8.45
Output  | 6.9141e-06 | 6.9141e-06 | 6.9141e-06 |   0.0 |  0.46
Modify  | 0.00063896 | 0.00063896 | 0.00063896 |   0.0 | 42.34
Other   |            | 5.412e-05  |            |       |  3.59

Nlocal:    100 ave 100 max 100 min
Histogram: 1 0 0 0 0 0 0 0 0 0
Nghost:    323 ave 323 max 323 min
Histogram: 1 0 0 0 0 0 0 0 0 0
Neighs:    1118 ave 1118 max 1118 min
Histogram: 1 0 0 0 0 0 0 0 0 0

Total # of neighbors = 1118
Ave neighs/atom = 11.18
Ave special neighs/atom = 1.98
Neighbor list builds = 0
Dangerous builds = 0
unfix 1
unfix 2

pair_style    lj/cut/soft 1.0 1.0 1.5
pair_coeff    1 2 0.2 1.0 0.9820000000000008
pair_style    lj/cut/soft 1.0 1.0 1.5
pair_coeff    1 1 0.2 1.0 0.9820000000000008
pair_style    lj/cut/soft 1.0 1.0 1.5
pair_coeff    2 2 0.5 1.0 0.9820000000000008
velocity        all scale 1.0
fix             1 all nve/limit 1.5
fix             2 all langevin 1.0 1.0 1 52690
thermo_style    custom step temp press pe ke
thermo          100
run             100
Per MPI rank memory allocation (min/avg/max) = 5.555 | 5.555 | 5.555 Mbytes
Step Temp Press PotEng KinEng 
  111700            1  -0.01537133    20.408859        1.485 
  111800   0.99700214 -0.027985931    20.412411    1.4805482 
Loop time of 0.00169301 on 1 procs for 100 steps with 100 atoms

Performance: 25516678.327 tau/day, 59066.385 timesteps/s
99.9% CPU use with 1 MPI tasks x 1 OpenMP threads

MPI task timing breakdown:
Section |  min time  |  avg time  |  max time  |%varavg| %total
---------------------------------------------------------------
Pair    | 0.00056958 | 0.00056958 | 0.00056958 |   0.0 | 33.64
Bond    | 0.00018597 | 0.00018597 | 0.00018597 |   0.0 | 10.98
Neigh   | 0          | 0          | 0          |   0.0 |  0.00
Comm    | 0.00016832 | 0.00016832 | 0.00016832 |   0.0 |  9.94
Output  | 6.9141e-06 | 6.9141e-06 | 6.9141e-06 |   0.0 |  0.41
Modify  | 0.00071096 | 0.00071096 | 0.00071096 |   0.0 | 41.99
Other   |            | 5.126e-05  |            |       |  3.03

Nlocal:    100 ave 100 max 100 min
Histogram: 1 0 0 0 0 0 0 0 0 0
Nghost:    322 ave 322 max 322 min
Histogram: 1 0 0 0 0 0 0 0 0 0
Neighs:    1133 ave 1133 max 1133 min
Histogram: 1 0 0 0 0 0 0 0 0 0

Total # of neighbors = 1133
Ave neighs/atom = 11.33
Ave special neighs/atom = 1.98
Neighbor list builds = 0
Dangerous builds = 0
unfix 1
unfix 2

pair_style    lj/cut/soft 1.0 1.0 1.5
pair_coeff    1 2 0.2 1.0 0.9910000000000008
pair_style    lj/cut/soft 1.0 1.0 1.5
pair_coeff    1 1 0.2 1.0 0.9910000000000008
pair_style    lj/cut/soft 1.0 1.0 1.5
pair_coeff    2 2 0.5 1.0 0.9910000000000008
velocity        all scale 1.0
fix             1 all nve/limit 1.5
fix             2 all langevin 1.0 1.0 1 52690
thermo_style    custom step temp press pe ke
thermo          100
run             100
Per MPI rank memory allocation (min/avg/max) = 5.555 | 5.555 | 5.555 Mbytes
Step Temp Press PotEng KinEng 
  111800            1 -0.027930973    20.411402        1.485 
  111900    1.0149404 0.0036607854    20.386493    1.5071865 
Loop time of 0.00164008 on 1 procs for 100 steps with 100 atoms

Performance: 26340155.953 tau/day, 60972.583 timesteps/s
99.9% CPU use with 1 MPI tasks x 1 OpenMP threads

MPI task timing breakdown:
Section |  min time  |  avg time  |  max time  |%varavg| %total
---------------------------------------------------------------
Pair    | 0.00056791 | 0.00056791 | 0.00056791 |   0.0 | 34.63
Bond    | 0.00019288 | 0.00019288 | 0.00019288 |   0.0 | 11.76
Neigh   | 0          | 0          | 0          |   0.0 |  0.00
Comm    | 0.00015187 | 0.00015187 | 0.00015187 |   0.0 |  9.26
Output  | 5.9605e-06 | 5.9605e-06 | 5.9605e-06 |   0.0 |  0.36
Modify  | 0.0006609  | 0.0006609  | 0.0006609  |   0.0 | 40.30
Other   |            | 6.056e-05  |            |       |  3.69

Nlocal:    100 ave 100 max 100 min
Histogram: 1 0 0 0 0 0 0 0 0 0
Nghost:    330 ave 330 max 330 min
Histogram: 1 0 0 0 0 0 0 0 0 0
Neighs:    1110 ave 1110 max 1110 min
Histogram: 1 0 0 0 0 0 0 0 0 0

Total # of neighbors = 1110
Ave neighs/atom = 11.1
Ave special neighs/atom = 1.98
Neighbor list builds = 0
Dangerous builds = 0
unfix 1
unfix 2

pair_style    lj/cut/soft 1.0 1.0 1.5
pair_coeff    1 2 0.2 1.0 1.0000000000000007
pair_style    lj/cut/soft 1.0 1.0 1.5
pair_coeff    1 1 0.2 1.0 1.0000000000000007
pair_style    lj/cut/soft 1.0 1.0 1.5
pair_coeff    2 2 0.5 1.0 1.0000000000000007
velocity        all scale 1.0
fix             1 all nve/limit 1.5
fix             2 all langevin 1.0 1.0 1 52690
thermo_style    custom step temp press pe ke
thermo          100
run             100
Per MPI rank memory allocation (min/avg/max) = 5.555 | 5.555 | 5.555 Mbytes
Step Temp Press PotEng KinEng 
  111900            1 0.0034885978     20.38566        1.485 
  112000    0.9976058 -0.0059460125    20.513705    1.4814446 
Loop time of 0.00156903 on 1 procs for 100 steps with 100 atoms

Performance: 27532887.525 tau/day, 63733.536 timesteps/s
99.5% CPU use with 1 MPI tasks x 1 OpenMP threads

MPI task timing breakdown:
Section |  min time  |  avg time  |  max time  |%varavg| %total
---------------------------------------------------------------
Pair    | 0.00046945 | 0.00046945 | 0.00046945 |   0.0 | 29.92
Bond    | 0.00017929 | 0.00017929 | 0.00017929 |   0.0 | 11.43
Neigh   | 0          | 0          | 0          |   0.0 |  0.00
Comm    | 0.00019455 | 0.00019455 | 0.00019455 |   0.0 | 12.40
Output  | 1.812e-05  | 1.812e-05  | 1.812e-05  |   0.0 |  1.15
Modify  | 0.00064707 | 0.00064707 | 0.00064707 |   0.0 | 41.24
Other   |            | 6.056e-05  |            |       |  3.86

Nlocal:    100 ave 100 max 100 min
Histogram: 1 0 0 0 0 0 0 0 0 0
Nghost:    322 ave 322 max 322 min
Histogram: 1 0 0 0 0 0 0 0 0 0
Neighs:    1066 ave 1066 max 1066 min
Histogram: 1 0 0 0 0 0 0 0 0 0

Total # of neighbors = 1066
Ave neighs/atom = 10.66
Ave special neighs/atom = 1.98
Neighbor list builds = 0
Dangerous builds = 0
unfix 1
unfix 2

#---------------------------------------------------------------------------------------------------
# Minimize
#---------------------------------------------------------------------------------------------------
minimize 1.0e-5 1.0e-8 10000 10000
WARNING: Using 'neigh_modify every 1 delay 0 check yes' setting during minimization (src/min.cpp:168)
Per MPI rank memory allocation (min/avg/max) = 6.68 | 6.68 | 6.68 Mbytes
Step Temp Press PotEng KinEng 
  112000    0.9976058 -0.0059460125    20.513705    1.4814446 
  112008    0.9976058   0.01417973    19.904641    1.4814446 
Loop time of 0.000311852 on 1 procs for 8 steps with 100 atoms

98.4% CPU use with 1 MPI tasks x 1 OpenMP threads

Minimization stats:
  Stopping criterion = energy tolerance
  Energy initial, next-to-last, final = 
         20.5137050477      19.9047828249      19.9046414658
  Force two-norm initial, final = 431.58 15.9314
  Force max component initial, final = 90.1623 4.25085
  Final line search alpha, max atom move = 0.0068939 0.0293049
  Iterations, force evaluations = 8 16

MPI task timing breakdown:
Section |  min time  |  avg time  |  max time  |%varavg| %total
---------------------------------------------------------------
Pair    | 9.8705e-05 | 9.8705e-05 | 9.8705e-05 |   0.0 | 31.65
Bond    | 0.00012374 | 0.00012374 | 0.00012374 |   0.0 | 39.68
Neigh   | 0          | 0          | 0          |   0.0 |  0.00
Comm    | 2.265e-05  | 2.265e-05  | 2.265e-05  |   0.0 |  7.26
Output  | 0          | 0          | 0          |   0.0 |  0.00
Modify  | 0          | 0          | 0          |   0.0 |  0.00
Other   |            | 6.676e-05  |            |       | 21.41

Nlocal:    100 ave 100 max 100 min
Histogram: 1 0 0 0 0 0 0 0 0 0
Nghost:    313 ave 313 max 313 min
Histogram: 1 0 0 0 0 0 0 0 0 0
Neighs:    1069 ave 1069 max 1069 min
Histogram: 1 0 0 0 0 0 0 0 0 0

Total # of neighbors = 1069
Ave neighs/atom = 10.69
Ave special neighs/atom = 1.98
Neighbor list builds = 0
Dangerous builds = 0

#---------------------------------------------------------------------------------------------------
# EQUILIBRATION STAGE 2
#---------------------------------------------------------------------------------------------------
pair_style    lj/cut 1.5
pair_coeff    1 1 0.2 1.0
pair_style    lj/cut 3.0
pair_coeff    1 2 0.2 1.5
pair_style    lj/cut 3.5
pair_coeff    2 2 0.5 1.0

velocity        all scale 1.0
fix             1 all nve/limit 1.5
fix             2 all langevin 1.0 1.0 1 58841
thermo_style    custom step temp press pe ke
thermo          100
run             10000
Neighbor list info ...
  update every 10 steps, delay 10 steps, check yes
  max neighbors/atom: 10000, page size: 100000
  master list distance cutoff = 7.5
  ghost atom cutoff = 7.5
  binsize = 3.75, bins = 6 6 6
  1 neighbor lists, perpetual/occasional/extra = 1 0 0
  (1) pair lj/cut, perpetual
      attributes: half, newton on
      pair build: half/multi/newton
      stencil: half/multi/3d/newton
      bin: standard
Per MPI rank memory allocation (min/avg/max) = 5.798 | 5.798 | 5.798 Mbytes
Step Temp Press PotEng KinEng 
  112008            1   0.13168313    21.952423        1.485 
  112100    1.5237919 0.0040740773    20.180173     2.262831 
  112200    1.0478211 -0.0058235126    20.328862    1.5560143 
  112300    1.0648689 -0.018452233    20.419289    1.5813303 
  112400    1.0662398  -0.01272312    20.384687    1.5833661 
  112500    1.0906728 -0.011194094    20.254608     1.619649 
  112600     1.055243   0.01994404      20.2311    1.5670359 
  112700    1.0049745 0.0013320252    20.327538    1.4923872 
  112800    1.0471395  0.014783052    20.376681    1.5550022 
  112900    0.9755315 0.0096204191    20.265663    1.4486643 
  113000   0.92377231 -0.022226465    20.289227    1.3718019 
  113100    1.0157535 0.0017027719    20.375204     1.508394 
  113200    1.0123561 -0.0054478131    20.312079    1.5033487 
  113300   0.94594732 0.00071243531    20.293164    1.4047318 
  113400    1.0589975 -0.0046974476    20.308422    1.5726113 
  113500    1.0865589 0.0085246266    20.202593      1.61354 
  113600    1.0308183 -0.015419346    20.226329    1.5307651 
  113700   0.90006898 -0.018367982    20.257685    1.3366024 
  113800   0.89165474 -0.008978228     20.42745    1.3241073 
  113900   0.92110287  0.024433789    20.338434    1.3678378 
  114000    0.9471264 -0.005831832    20.243204    1.4064827 
  114100    1.0743407  0.002150083    20.248675     1.595396 
  114200   0.93395627 -0.016854007     20.50321    1.3869251 
  114300    1.1285603  0.014065559    20.316704    1.6759121 
  114400    1.1225783 -0.020407138    20.373348    1.6670288 
  114500   0.99762183 0.0024828826    20.353934    1.4814684 
  114600    1.0509666 0.0076135074    20.358823    1.5606854 
  114700    1.0660923 0.0095849807    20.384369     1.583147 
  114800     1.098378 0.0027975159     20.18216    1.6310913 
  114900   0.95793337 -0.0047515914    20.255473    1.4225311 
  115000   0.97181891  0.014434774    20.202584    1.4431511 
  115100   0.97918643 -0.0010703656    20.140459    1.4540918 
  115200   0.87804769 -0.0064916203     20.20427    1.3039008 
  115300   0.92230656  0.024657971    20.076694    1.3696252 
  115400   0.88340308 -0.031373182    20.261266    1.3118536 
  115500   0.83787623  0.011243771    20.267402    1.2442462 
  115600     1.067571 -0.0025135749    20.259389     1.585343 
  115700   0.92343776 -0.016067399    20.257397    1.3713051 
  115800   0.91578024 -0.020400612     20.10162    1.3599336 
  115900   0.94223811  0.027074598    20.171301    1.3992236 
  116000   0.94192571 -0.0022724882    20.252293    1.3987597 
  116100   0.96944121 0.0080637424    20.297113    1.4396202 
  116200   0.87045435 -0.0084657474    20.391534    1.2926247 
  116300     1.083937 1.3514061e-05    20.222281    1.6096464 
  116400   0.96816406  0.025603071    20.408634    1.4377236 
  116500    1.0372529 -0.00019779379    20.362306    1.5403206 
  116600   0.89681165 0.0049881509    20.150283    1.3317653 
  116700   0.92271301 -0.010205946    20.226603    1.3702288 
  116800   0.94980266 0.0095373506    20.420378    1.4104569 
  116900    1.0134515 -0.0094724926    20.114639    1.5049754 
  117000    1.2077048 -0.024128109    20.241378    1.7934416 
  117100   0.91279866    0.0127969    20.285469     1.355506 
  117200    1.0006738  0.020742723    20.279291    1.4860006 
  117300    1.0046487 0.0018687566    20.209792    1.4919034 
  117400   0.92185474  -0.01659371     20.30139    1.3689543 
  117500   0.89052274   -0.0223878    20.341088    1.3224263 
  117600    1.0049827 -0.017931007    20.339254    1.4923993 
  117700    1.0767505  0.012404743    20.204663    1.5989745 
  117800   0.97891533  0.020789029     20.33344    1.4536893 
  117900    1.0352484 -0.013052056    20.272775    1.5373439 
  118000   0.97817581 -0.013390602    20.211392    1.4525911 
  118100   0.90731556 -0.0072077836    20.342009    1.3473636 
  118200    0.9653497  0.014967331    20.223308    1.4335443 
  118300    1.0724925 -0.010409596     20.30457    1.5926513 
  118400   0.93186527 0.0056657241    20.351578    1.3838199 
  118500    1.0972237  0.034337309    20.103646    1.6293772 
  118600    1.1123476  0.015512133    20.162412    1.6518361 
  118700   0.80510449 -0.00099023127    20.143536    1.1955802 
  118800   0.92349378 -0.0084091566    20.095771    1.3713883 
  118900   0.99539537 -0.011466926    20.195864    1.4781621 
  119000    1.0220118  0.010598757    20.273008    1.5176876 
  119100     0.999563  0.023868138    20.338959     1.484351 
  119200    1.1945069 -0.0023531928     20.26536    1.7738428 
  119300    1.0538296  0.010743389    20.407553    1.5649369 
  119400     1.102952  0.026429743    20.356334    1.6378837 
  119500     1.188623  0.012218055    20.238293    1.7651052 
  119600    1.0354539 0.0062602063    20.417331     1.537649 
  119700    1.0006234 -0.0088324002    20.261919    1.4859257 
  119800    1.0481645 -0.014926265    20.171967    1.5565243 
  119900    1.1416517  0.011807304     20.22668    1.6953528 
  120000    1.0660907 -0.0018054962     20.18685    1.5831447 
  120100    0.9540237  0.022686584    20.316748    1.4167252 
  120200    1.1778975 0.0038192435    20.265145    1.7491778 
  120300    1.1002803 -0.0098309237    20.328914    1.6339162 
  120400    1.1641852 -0.0048194817    20.231892     1.728815 
  120500    1.1796982 0.0035734825    20.222018    1.7518518 
  120600   0.96588817  0.019282523    20.364234    1.4343439 
  120700    1.0204674 -0.017532226    20.263716     1.515394 
  120800   0.88077929 0.0031659408    20.248824    1.3079573 
  120900   0.96870562 0.00055965632    20.128208    1.4385278 
  121000   0.82245877 -0.017274196    20.267964    1.2213513 
  121100   0.87255389 -0.013793233    20.321155    1.2957425 
  121200    1.0504338 -0.0063459485    20.133002    1.5598942 
  121300     0.952566   0.01308034    20.220674    1.4145605 
  121400    1.0316147 -0.009928294    20.328767    1.5319479 
  121500   0.97971534 -0.017748552    20.351168    1.4548773 
  121600   0.98668472 -0.0020548587    20.292933    1.4652268 
  121700   0.78530581 -0.015181966    20.422952    1.1661791 
  121800   0.92291729 -0.0032602341    20.284004    1.3705322 
  121900    0.9021396 0.0036491895    20.392159    1.3396773 
  122000   0.96770588 0.0080299438    20.227858    1.4370432 
  122008   0.94759655 0.0017663654    20.338142    1.4071809 
Loop time of 0.216381 on 1 procs for 10000 steps with 100 atoms

Performance: 19964777.603 tau/day, 46214.763 timesteps/s
99.2% CPU use with 1 MPI tasks x 1 OpenMP threads

MPI task timing breakdown:
Section |  min time  |  avg time  |  max time  |%varavg| %total
---------------------------------------------------------------
Pair    | 0.11164    | 0.11164    | 0.11164    |   0.0 | 51.59
Bond    | 0.01761    | 0.01761    | 0.01761    |   0.0 |  8.14
Neigh   | 0.0037711  | 0.0037711  | 0.0037711  |   0.0 |  1.74
Comm    | 0.015965   | 0.015965   | 0.015965   |   0.0 |  7.38
Output  | 0.00094414 | 0.00094414 | 0.00094414 |   0.0 |  0.44
Modify  | 0.06086    | 0.06086    | 0.06086    |   0.0 | 28.13
Other   |            | 0.005591   |            |       |  2.58

Nlocal:    100 ave 100 max 100 min
Histogram: 1 0 0 0 0 0 0 0 0 0
Nghost:    395 ave 395 max 395 min
Histogram: 1 0 0 0 0 0 0 0 0 0
Neighs:    1906 ave 1906 max 1906 min
Histogram: 1 0 0 0 0 0 0 0 0 0

Total # of neighbors = 1906
Ave neighs/atom = 19.06
Ave special neighs/atom = 1.98
Neighbor list builds = 52
Dangerous builds = 0
unfix 1
unfix 2
write_restart   restart.int_settings.in.polylattice2

Please see the log.cite file for references relevant to this simulation

Total wall time: 0:00:03
