#-----------------------------------------------------------------------------------           
# NANOPOLY - POLYMER NANOCOMPOSITE STRUCTURAL DATA FILE                                        
#-----------------------------------------------------------------------------------           
# FILENAME:  int_structure.in                                                                  
# DATE: 2021-10-27                                                                                
#-----------------------------------------------------------------------------------           
                                                                                               
10000 atoms                                                             
9990 bonds                                                             
                                                                                               
2 atom types                                      
1 bond types                                            
                                                                                    
0.0000 22.0000 xlo xhi            
0.0000 22.0000 ylo yhi            
0.0000 22.0000 zlo zhi            
                                                                                    
                                                                                    
# Types have been converted numerically as follows:                                 
# 1 mainbead
# 2 subbead
                                                                                    
Masses                                                                              
                                                                                    
1	0.5
2	1.0

Atoms                                                                               

	1	1	1	6.13824		15.28011		1.67830	
	2	1	1	6.34042		16.23032		1.11628	
	3	1	1	7.36332		15.95289		0.74701	
	4	1	1	7.12974		14.93333		1.15393	
	5	1	1	7.13412		13.81233		1.20863	
	6	1	1	6.26961		13.91716		1.91663	
	7	1	1	6.89209		13.75008		2.83547	
	8	1	1	6.42978		12.84679		3.31504	
	9	1	1	6.54517		12.61357		2.22328	
	10	1	1	6.70803		13.50859		1.56596	
	11	1	1	6.81422		14.48206		1.01756	
	12	1	1	6.50244		15.54308		1.20903	
	13	1	1	7.27698		14.83838		1.61293	
	14	1	1	7.27684		14.14826		2.49801	
	15	1	1	6.33509		14.26495		1.89874	
	16	1	1	7.19368		14.98270		1.98420	
	17	1	1	7.55802		15.29491		0.96959	
	18	1	1	6.57980		14.87864		1.32938	
	19	1	1	6.53179		15.95530		1.64268	
	20	1	1	7.59844		15.66958		1.44202	
	21	1	1	8.12807		15.70983		0.45332	
	22	1	1	9.22641		15.77546		0.23197	
	23	1	1	8.42102		15.48638		0.95822	
	24	1	1	9.06668		14.99574		0.18230	
	25	1	1	8.65640		14.66749		21.19055	
	26	1	1	7.64520		14.25867		20.92601	
	27	1	1	6.96211		15.14912		20.91428	
	28	1	1	6.25285		14.32291		21.18630	
	29	1	1	6.21226		14.58330		20.09534	
	30	1	1	5.50094		15.12420		20.77438	
	31	1	1	5.21750		16.17401		20.49649	
	32	1	1	5.59982		15.97540		21.53285	
	33	1	1	5.71671		15.23629		0.36933	
	34	1	1	5.07297		16.08697		0.02063	
	35	1	1	4.64637		17.12507		0.02122	
	36	1	1	5.46653		17.39563		0.73801	
	37	1	1	4.70158		17.44970		1.55751	
	38	1	1	4.11952		17.68761		2.48716	
	39	1	1	4.12349		18.27487		1.53072	
	40	1	1	3.87112		19.21143		0.96609	
	41	1	1	3.22682		20.08917		1.23830	
	42	1	1	3.01131		21.16824		1.01741	
	43	1	1	3.48682		20.15184		1.03892	
	44	1	1	4.52668		20.16406		1.46105	
	45	1	1	4.11189		20.18722		0.41843	
	46	1	1	4.78243		19.92686		21.55690	
	47	1	1	4.11688		19.69001		20.68478	
	48	1	1	4.68649		20.13564		19.82652	
	49	1	1	3.69490		19.96157		20.32261	
	50	1	1	4.57031		19.49904		20.85117	
	51	1	1	4.98117		18.90558		21.71062	
	52	1	1	5.53623		19.78753		0.12743	
	53	1	1	5.63946		18.78416		0.61961	
	54	1	1	5.20544		19.39918		21.78713	
	55	1	1	4.86938		19.93664		0.71332	
	56	1	1	3.88053		20.42429		0.92315	
	57	1	1	3.55393		21.46094		0.64328	
	58	1	1	2.92968		0.35253		0.91718	
	59	1	1	3.89237		0.92355		0.83458	
	60	1	1	3.90478		21.85426		0.49382	
	61	1	1	4.08645		0.78262		1.09780	
	62	1	1	3.82699		21.95125		0.38988	
	63	1	1	3.05388		21.95529		1.20347	
	64	1	1	3.25957		21.65738		2.26582	
	65	1	1	3.77634		0.60408		2.57623	
	66	1	1	4.72311		0.93318		2.07128	
	67	1	1	3.72711		1.30368		2.43234	
	68	1	1	3.09113		2.17141		2.75207	
	69	1	1	3.14337		1.09731		3.07336	
	70	1	1	4.13759		0.64009		2.82414	
	71	1	1	3.17220		0.09171		2.98830	
	72	1	1	2.27215		0.75684		3.07282	
	73	1	1	2.84046		0.62789		4.03200	
	74	1	1	3.73416		1.12561		4.49376	
	75	1	1	2.66828		0.79400		4.37724	
	76	1	1	2.26193		1.73271		3.91534	
	77	1	1	1.48828		1.19359		3.30668	
	78	1	1	2.04632		0.52840		4.01785	
	79	1	1	2.78438		1.31677		4.32344	
	80	1	1	1.88695		1.96754		4.14802	
	81	1	1	1.73758		1.47674		5.14625	
	82	1	1	0.61980		1.46512		5.04588	
	83	1	1	0.94983		0.50527		4.56690	
	84	1	1	1.27551		1.19929		3.74719	
	85	1	1	2.39394		1.11898		3.79523	
	86	1	1	1.39075		0.93711		4.26446	
	87	1	1	2.33733		0.59800		3.76583	
	88	1	1	1.78568		0.86451		4.70621	
	89	1	1	2.36561		0.48744		5.59003	
	90	1	1	2.56000		1.55391		5.88069	
	91	1	1	2.14427		1.98558		4.93176	
	92	1	1	1.80887		2.03020		3.86163	
	93	1	1	2.19320		2.26324		4.89004	
	94	1	1	2.10213		1.46736		5.67613	
	95	1	1	1.00693		1.43025		5.43363	
	96	1	1	0.51408		2.22517		6.05399	
	97	1	1	0.45247		2.55244		7.12579	
	98	1	1	21.40486		2.41926		7.50582	
	99	1	1	20.85595		3.07278		6.77695	
	100	1	1	20.03638		3.18569		7.53537	
	101	1	1	19.28942		3.93632		7.90719	
	102	1	1	18.68006		3.07035		7.53514	
	103	1	1	19.03654		3.18166		6.47676	
	104	1	1	18.43375		3.09581		7.41958	
	105	1	1	17.34659		3.07081		7.14189	
	106	1	1	17.07100		3.47358		8.15258	
	107	1	1	17.59480		4.18079		8.84909	
	108	1	1	18.37347		4.98890		8.86569	
	109	1	1	18.94866		4.20823		8.30059	
	110	1	1	19.91189		3.66893		8.09810	
	111	1	1	19.57843		4.34199		8.93203	
	112	1	1	18.85916		3.55708		9.28728	
	113	1	1	19.05838		4.44147		8.62562	
	114	1	1	19.28701		3.56760		7.95949	
	115	1	1	18.32663		3.06729		8.25447	
	116	1	1	19.36828		3.26516		8.62250	
	117	1	1	18.41421		3.61320		9.10026	
	118	1	1	18.91531		2.91799		9.82499	
	119	1	1	19.82965		2.74161		10.45150	
	120	1	1	20.56015		3.49702		10.05735	
	121	1	1	21.35550		3.57159		9.26899	
	122	1	1	21.76491		3.93612		10.24835	
	123	1	1	0.43065		4.59099		9.62579	
	124	1	1	1.35253		4.82123		9.02848	
	125	1	1	1.26906		5.34961		10.01513	
	126	1	1	1.00647		5.78233		11.01686	
	127	1	1	1.57545		5.31174		11.86211	
	128	1	1	1.67139		5.61014		10.78443	
	129	1	1	0.58343		5.83648		10.94182	
	130	1	1	0.32803		5.13784		10.10138	
	131	1	1	0.41594		5.21719		11.21746	
	132	1	1	1.31856		5.76518		11.59775	
	133	1	1	1.19727		4.75861		11.11635	
	134	1	1	0.59834		5.11928		11.99433	
	135	1	1	0.47354		4.01603		11.83025	
	136	1	1	1.44576		3.49164		11.63162	
	137	1	1	1.54181		2.44284		11.24374	
	138	1	1	2.52273		2.98609		11.29197	
	139	1	1	3.57853		2.96927		11.67230	
	140	1	1	2.94302		2.05473		11.81154	
	141	1	1	3.91064		2.20537		11.26320	
	142	1	1	4.47754		2.91143		11.92634	
	143	1	1	3.74161		3.26171		12.69794	
	144	1	1	2.97307		3.50684		13.47826	
	145	1	1	2.79914		2.42534		13.23378	
	146	1	1	2.55922		1.40177		12.84087	
	147	1	1	1.85244		2.20826		13.17206	
	148	1	1	2.96164		2.27742		13.01541	
	149	1	1	3.91833		2.03933		13.55180	
	150	1	1	3.51904		2.20886		12.51668	
	151	1	1	3.92698		1.31249		13.05496	
	152	1	1	3.79064		2.38145		12.74129	
	153	1	1	3.17455		3.26830		12.43541	
	154	1	1	2.92032		3.95939		13.28241	
	155	1	1	3.25276		3.20253		12.52328	
	156	1	1	3.25595		3.70071		13.52899	
	157	1	1	3.32319		3.79668		12.41278	
	158	1	1	2.50213		4.13905		11.72846	
	159	1	1	1.68328		3.51533		11.28115	
	160	1	1	1.58294		4.33988		10.52637	
	161	1	1	1.28624		3.25773		10.50243	
	162	1	1	1.91325		3.15923		11.42807	
	163	1	1	1.10907		3.30251		12.19775	
	164	1	1	1.68451		3.02625		11.27461	
	165	1	1	1.24664		3.32239		10.28455	
	166	1	1	0.84650		4.27632		10.71994	
	167	1	1	1.65559		3.51923		10.54151	
	168	1	1	1.02834		4.09669		9.81162	
	169	1	1	1.25219		4.70707		8.89676	
	170	1	1	1.80110		5.49295		9.48049	
	171	1	1	2.43203		6.35301		9.13140	
	172	1	1	1.96896		5.68531		9.90560	
	173	1	1	2.27564		5.27913		10.90591	
	174	1	1	3.17283		4.96667		10.30835	
	175	1	1	3.06342		5.24896		9.22762	
	176	1	1	2.00157		5.07967		9.54927	
	177	1	1	2.77951		5.30371		8.77192	
	178	1	1	2.45115		6.07243		9.52085	
	179	1	1	1.89382		5.73789		8.60591	
	180	1	1	1.87270		4.62232		8.72714	
	181	1	1	2.25434		5.65183		8.49453	
	182	1	1	1.72147		5.94030		7.54983	
	183	1	1	1.87250		4.88906		7.18690	
	184	1	1	2.47076		4.77404		6.24429	
	185	1	1	1.62769		5.49383		6.06888	
	186	1	1	0.85882		5.53153		6.88562	
	187	1	1	1.63909		5.88703		6.16144	
	188	1	1	0.54210		6.12216		6.19246	
	189	1	1	1.19826		5.28191		5.84163	
	190	1	1	1.07637		4.17777		5.68145	
	191	1	1	0.18877		3.54672		5.95273	
	192	1	1	0.64121		2.67376		6.49393	
	193	1	1	1.33886		3.52952		6.29245	
	194	1	1	1.58761		4.23625		5.45681	
	195	1	1	1.71977		4.66957		4.42996	
	196	1	1	0.72289		4.39820		3.99151	
	197	1	1	21.78239		4.32011		3.38406	
	198	1	1	21.67290		4.38333		2.26886	
	199	1	1	21.66580		5.05035		1.36626	
	200	1	1	0.31222		5.68831		0.70687	
	201	1	1	1.14820		5.60554		1.45114	
	202	1	1	2.09457		6.20791		1.48564	
	203	1	1	1.30543		5.50147		1.11434	
	204	1	1	1.25183		6.22099		1.97403	
	205	1	1	0.73370		7.20716		2.11062	
	206	1	1	0.51916		7.06941		1.01762	
	207	1	1	0.22059		7.58111		1.97086	
	208	1	1	0.17988		7.97976		0.92249	
	209	1	1	0.12496		9.09926		0.98033	
	210	1	1	21.70632		8.88938		21.96036	
	211	1	1	20.85597		9.15291		21.27691	
	212	1	1	21.83108		8.72536		20.92193	
	213	1	1	20.89296		8.14432		21.12681	
	214	1	1	20.15761		8.92094		21.46705	
	215	1	1	20.87165		8.20341		20.98233	
	216	1	1	20.09739		7.58514		21.50950	
	217	1	1	18.98985		7.40749		21.54757	
	218	1	1	18.78926		7.03012		20.50978	
	219	1	1	19.05416		6.60333		19.50613	
	220	1	1	18.87810		6.41840		20.59904	
	221	1	1	19.36198		5.40965		20.68809	
	222	1	1	20.29930		5.99574		20.49427	
	223	1	1	20.02285		5.24580		21.28218	
	224	1	1	20.62141		5.76526		0.07687	
	225	1	1	20.89346		4.90606		21.40799	
	226	1	1	21.33345		5.93571		21.33138	
	227	1	1	20.87734		4.93365		21.11348	
	228	1	1	19.99700		4.23808		21.08472	
	229	1	1	19.95751		4.78179		20.10366	
	230	1	1	19.03168		5.20046		19.62701	
	231	1	1	20.04932		5.49206		19.25417	
	232	1	1	19.86772		6.49578		18.78597	
	233	1	1	20.50214		7.23400		18.22723	
	234	1	1	21.36245		6.58466		18.54009	
	235	1	1	20.75948		6.92309		19.42414	
	236	1	1	21.01095		7.52071		20.34025	
	237	1	1	20.06588		7.05247		20.72396	
	238	1	1	20.71602		7.84040		20.25906	
	239	1	1	20.06437		6.94190		20.42550	
	240	1	1	20.45076		6.16538		21.13780	
	241	1	1	20.92218		6.51804		0.09333	
	242	1	1	21.08803		6.38030		1.19477	
	243	1	1	20.51654		7.34156		1.09982	
	244	1	1	19.95929		8.07427		0.45776	
	245	1	1	20.32559		8.56116		1.40031	
	246	1	1	19.95030		7.54620		1.69807	
	247	1	1	19.14562		7.50423		2.47933	
	248	1	1	19.10432		8.41767		1.82851	
	249	1	1	18.21808		7.82329		1.48076	
	250	1	1	18.31537		8.91956		1.26086	
	251	1	1	18.83299		7.93722		1.42428	
	252	1	1	18.10226		8.10692		2.25907	
	253	1	1	17.87077		7.56115		1.30608	
	254	1	1	18.00307		7.28761		2.38651	
	255	1	1	17.59315		8.11485		1.74832	
	256	1	1	18.51185		7.69588		2.23833	
	257	1	1	18.55210		7.62697		3.35783	
	258	1	1	18.93501		7.88551		2.33500	
	259	1	1	18.67338		6.80275		2.19777	
	260	1	1	19.44232		6.93383		1.39080	
	261	1	1	19.52207		8.00621		1.71219	
	262	1	1	19.34712		7.31679		2.58038	
	263	1	1	18.84850		8.19408		3.07170	
	264	1	1	18.20959		8.98566		3.54587	
	265	1	1	17.32975		8.51041		3.03630	
	266	1	1	16.97780		9.46604		3.50807	
	267	1	1	17.92938		10.05015		3.39424	
	268	1	1	16.89711		10.42983		3.17083	
	269	1	1	17.31667		10.52860		4.20710	
	270	1	1	17.71342		9.56800		3.78344	
	271	1	1	18.01114		9.30108		4.83213	
	272	1	1	17.24222		9.98215		5.28441	
	273	1	1	16.84379		10.46471		4.35273	
	274	1	1	16.08041		11.26216		4.15029	
	275	1	1	15.95977		10.17969		4.42115	
	276	1	1	14.94406		9.83640		4.75301	
	277	1	1	14.22352		9.26275		4.11162	
	278	1	1	14.67522		9.96097		3.35790	
	279	1	1	14.26659		9.76223		4.38414	
	280	1	1	14.24709		8.77112		4.91043	
	281	1	1	15.00474		8.81291		4.08347	
	282	1	1	15.32977		8.60871		5.13813	
	283	1	1	15.56664		7.73052		5.79564	
	284	1	1	14.56010		7.67390		5.30237	
	285	1	1	14.27196		6.76386		5.89266	
	286	1	1	13.59700		7.10617		5.06386	
	287	1	1	13.23286		6.45919		5.90556	
	288	1	1	12.60790		5.64662		6.36252	
	289	1	1	12.88111		5.10285		7.30556	
	290	1	1	11.92257		4.86245		7.83759	
	291	1	1	12.87769		4.66068		7.28381	
	292	1	1	13.66760		3.87324		7.40880	
	293	1	1	13.20703		2.93107		7.00901	
	294	1	1	14.06946		2.34063		7.41796	
	295	1	1	13.78719		3.42005		7.29627	
	296	1	1	14.85801		3.31817		6.97592	
	297	1	1	14.82695		4.03989		6.11697	
	298	1	1	14.76603		4.93809		6.78718	
	299	1	1	15.79649		4.49980		6.86263	
	300	1	1	15.55631		3.54711		7.40514	
	301	1	1	15.87805		4.62157		7.44590	
	302	1	1	14.91516		4.31283		6.95890	
	303	1	1	15.03337		4.53730		8.05219	
	304	1	1	15.13986		3.70533		8.79793	
	305	1	1	15.70467		3.66641		9.76702	
	306	1	1	14.87351		3.20151		10.36090	
	307	1	1	15.28213		2.50148		9.58460	
	308	1	1	16.30636		2.95766		9.53453	
	309	1	1	15.81330		3.75333		10.15376	
	310	1	1	15.76075		2.69422		10.52140	
	311	1	1	15.05988		2.50546		9.66537	
	312	1	1	15.07325		3.54831		10.08001	
	313	1	1	14.32363		2.88523		9.57202	
	314	1	1	14.22476		3.44862		8.60638	
	315	1	1	13.85929		2.84293		7.73505	
	316	1	1	13.38835		2.75951		8.75039	
	317	1	1	13.63980		2.73862		9.84400	
	318	1	1	14.42554		1.99656		9.54134	
	319	1	1	14.72933		2.95372		10.04254	
	320	1	1	14.16345		2.45638		10.87446	
	321	1	1	13.47456		2.35507		9.99422	
	322	1	1	12.48320		1.82926		10.01335	
	323	1	1	12.51938		0.75051		10.32098	
	324	1	1	13.64032		0.74432		10.26523	
	325	1	1	13.30695		1.75398		9.90593	
	326	1	1	13.20498		2.37371		8.97577	
	327	1	1	12.23528		2.21679		9.51865	
	328	1	1	11.95844		1.13805		9.65773	
	329	1	1	11.50181		0.59340		8.78911	
	330	1	1	11.57849		1.49494		8.12503	
	331	1	1	11.90191		2.11731		9.00122	
	332	1	1	12.42071		3.10649		8.89157	
	333	1	1	11.82011		3.90865		8.38614	
	334	1	1	11.36348		4.92316		8.23813	
	335	1	1	10.52467		5.09746		8.96316	
	336	1	1	9.54470		5.15113		8.41871	
	337	1	1	9.56145		4.12093		7.97368	
	338	1	1	10.05228		5.11625		7.80617	
	339	1	1	10.54868		5.57378		6.90956	
	340	1	1	9.69745		4.84420		6.85705	
	341	1	1	10.24465		4.56568		5.91755	
	342	1	1	11.19025		4.66264		5.32083	
	343	1	1	11.65102		3.86112		4.68451	
	344	1	1	12.07406		2.92443		5.13539	
	345	1	1	13.12388		3.22593		5.39354	
	346	1	1	12.38995		4.06539		5.52124	
	347	1	1	13.33625		3.55522		5.84356	
	348	1	1	13.45574		2.77149		5.04911	
	349	1	1	14.12911		2.88197		5.94018	
	350	1	1	14.23065		1.85188		6.37407	
	351	1	1	14.12405		2.11029		7.46104	
	352	1	1	14.67312		2.99028		7.88976	
	353	1	1	14.79354		2.02581		7.32855	
	354	1	1	14.67013		1.62951		8.37131	
	355	1	1	14.30014		2.18956		7.47182	
	356	1	1	14.34891		1.11564		7.14940	
	357	1	1	13.45306		1.53479		7.67989	
	358	1	1	13.68068		0.47906		7.98532	
	359	1	1	13.59180		0.74058		9.07314	
	360	1	1	13.85330		1.24527		10.04090	
	361	1	1	13.07912		1.47545		10.82021	
	362	1	1	13.49672		2.49735		11.02267	
	363	1	1	14.00685		3.11015		10.23280	
	364	1	1	14.27609		2.83135		9.17951	
	365	1	1	14.73095		2.41384		8.24226	
	366	1	1	15.10310		3.45545		8.43254	
	367	1	1	14.89540		3.36967		7.33292	
	368	1	1	14.60970		4.40604		7.65534	
	369	1	1	15.54205		4.43427		8.27950	
	370	1	1	16.43185		4.99312		8.67395	
	371	1	1	17.54278		5.11993		8.57700	
	372	1	1	16.60045		5.27078		7.98631	
	373	1	1	16.25620		4.31702		7.50519	
	374	1	1	15.96979		3.27014		7.79094	
	375	1	1	14.97127		2.75870		7.82303	
	376	1	1	14.07115		3.13014		7.26495	
	377	1	1	14.91310		3.57510		6.67099	
	378	1	1	15.36429		3.67872		5.64858	
	379	1	1	15.14427		3.85326		4.56195	
	380	1	1	14.88994		4.70253		5.25021	
	381	1	1	14.54915		4.33059		4.24763	
	382	1	1	14.43633		4.76962		5.27436	
	383	1	1	14.80161		4.04364		4.50030	
	384	1	1	14.09805		4.20956		3.64175	
	385	1	1	13.59280		5.20708		3.54516	
	386	1	1	13.90179		4.19058		3.18334	
	387	1	1	14.22921		4.62518		4.16495	
	388	1	1	15.34324		4.76145		4.16601	
	389	1	1	15.30721		5.53453		3.35318	
	390	1	1	14.54024		4.78361		3.68108	
	391	1	1	14.73029		3.90104		4.34786	
	392	1	1	14.20072		2.92400		4.19105	
	393	1	1	14.93416		2.90803		5.04043	
	394	1	1	14.89880		3.35072		4.00969	
	395	1	1	15.89740		3.68363		4.39906	
	396	1	1	15.76018		3.44496		5.48711	
	397	1	1	16.50593		3.05924		6.23190	
	398	1	1	15.53022		3.01084		6.78443	
	399	1	1	15.02057		3.04804		7.78369	
	400	1	1	15.09744		3.86024		7.01293	
	401	1	1	16.20768		3.70526		7.06750	
	402	1	1	15.28299		3.17298		7.41574	
	403	1	1	14.57783		4.01588		7.18789	
	404	1	1	14.87540		2.93371		7.18842	
	405	1	1	14.87399		3.57605		6.26807	
	406	1	1	15.99430		3.63327		6.23259	
	407	1	1	15.30405		4.51805		6.25189	
	408	1	1	15.42007		5.62955		6.35554	
	409	1	1	15.41644		6.33930		7.22496	
	410	1	1	14.39093		5.88327		7.22276	
	411	1	1	15.02141		6.22009		6.35749	
	412	1	1	15.53516		5.24569		6.14242	
	413	1	1	14.71261		5.50485		5.42416	
	414	1	1	14.57855		5.24230		6.50709	
	415	1	1	13.49116		5.43672		6.70569	
	416	1	1	14.15388		5.39877		7.61068	
	417	1	1	14.60422		4.37604		7.50642	
	418	1	1	14.96338		4.27884		6.44755	
	419	1	1	15.28406		4.06166		5.39415	
	420	1	1	14.43643		4.64840		4.95041	
	421	1	1	13.60441		4.56948		5.69951	
	422	1	1	12.72990		4.07540		5.19875	
	423	1	1	13.66100		3.78246		4.64478	
	424	1	1	14.52235		3.34937		5.21937	
	425	1	1	14.49223		4.27698		4.58827	
	426	1	1	15.18573		5.13079		4.81120	
	427	1	1	15.56527		5.20225		5.86500	
	428	1	1	14.89939		5.32783		4.97031	
	429	1	1	15.67630		5.02405		4.21946	
	430	1	1	16.23255		4.77803		3.27621	
	431	1	1	17.08363		4.94398		2.56364	
	432	1	1	18.07595		5.32443		2.92449	
	433	1	1	18.22914		6.21936		3.58425	
	434	1	1	18.84712		5.74716		2.77506	
	435	1	1	18.25462		6.47880		2.16407	
	436	1	1	17.41357		6.42200		2.90505	
	437	1	1	16.34166		6.54442		3.21437	
	438	1	1	15.77687		5.59686		3.42125	
	439	1	1	15.71488		6.27879		4.31051	
	440	1	1	16.37873		5.40121		4.53143	
	441	1	1	15.49055		4.79940		4.20186	
	442	1	1	16.04736		5.08657		5.13307	
	443	1	1	16.17134		4.13641		4.54871	
	444	1	1	15.65585		4.60740		3.67002	
	445	1	1	14.93880		5.02781		4.42418	
	446	1	1	15.19618		5.18145		3.34261	
	447	1	1	14.72110		4.62035		2.49461	
	448	1	1	14.18172		5.40939		1.90628	
	449	1	1	14.33345		6.34404		1.30374	
	450	1	1	15.39065		5.96865		1.33620	
	451	1	1	15.81715		6.69788		0.59730	
	452	1	1	16.75009		6.24871		0.16426	
	453	1	1	17.40545		6.86735		21.49535	
	454	1	1	18.00493		6.20724		20.81379	
	455	1	1	18.83963		6.69800		21.38130	
	456	1	1	18.25221		6.24139		20.54101	
	457	1	1	17.52119		5.95393		19.73937	
	458	1	1	16.93387		5.09304		19.32276	
	459	1	1	16.84452		6.09155		19.82737	
	460	1	1	16.55294		5.63980		20.81254	
	461	1	1	15.74656		6.33735		21.16299	
	462	1	1	16.03475		5.38481		20.64409	
	463	1	1	16.18804		5.84173		19.63050	
	464	1	1	17.02563		5.11218		19.79123	
	465	1	1	16.58731		5.61426		20.69424	
	466	1	1	16.76181		6.68423		20.98468	
	467	1	1	15.77372		6.77028		21.50996	
	468	1	1	14.84829		6.55172		0.10615	
	469	1	1	15.43550		5.60135		21.99833	
	470	1	1	14.77658		6.38890		21.54532	
	471	1	1	14.83632		6.94046		0.52095	
	472	1	1	15.49012		6.05389		0.73585	
	473	1	1	15.27296		6.84121		21.96603	
	474	1	1	15.08318		6.89810		20.86132	
	475	1	1	16.14384		7.13512		20.58121	
	476	1	1	16.18872		7.17640		21.70189	
	477	1	1	17.19975		7.63713		21.86061	
	478	1	1	17.86174		6.76515		0.10774	
	479	1	1	17.19326		6.71036		1.00762	
	480	1	1	17.23147		6.72084		2.12926	
	481	1	1	16.39006		6.02888		2.39920	
	482	1	1	15.51172		5.36912		2.62918	
	483	1	1	15.76921		6.00259		3.51916	
	484	1	1	15.44789		4.96650		3.23120	
	485	1	1	14.86437		5.91811		3.11458	
	486	1	1	15.41751		5.93986		2.13825	
	487	1	1	15.12638		6.71499		2.89592	
	488	1	1	14.15211		6.61515		3.44410	
	489	1	1	13.11038		6.25481		3.65527	
	490	1	1	12.05539		6.60780		3.80366	
	491	1	1	11.09421		6.23891		4.25054	
	492	1	1	10.05428		6.26551		4.67184	
	493	1	1	9.12135		6.80615		4.36039	
	494	1	1	9.14253		6.47549		5.43271	
	495	1	1	9.12065		7.20923		4.58372	
	496	1	1	10.08829		7.21573		4.01516	
	497	1	1	9.30693		6.59417		4.52778	
	498	1	1	10.21203		5.93098		4.55265	
	499	1	1	9.67283		5.82981		5.53178	
	500	1	1	9.21453		6.39646		4.67824	
	501	1	2	8.92538		6.25241		3.60340	
	502	1	2	8.62444		7.13212		4.23205	
	503	1	2	9.20040		7.21934		3.27272	
	504	1	2	8.99963		8.21369		2.79251	
	505	1	2	9.23225		8.66302		1.79069	
	506	1	2	8.96507		9.25995		0.87859	
	507	1	2	9.29654		8.57933		0.05002	
	508	1	2	10.18149		9.18268		21.71463	
	509	1	2	9.79846		10.20059		21.43751	
	510	1	2	9.25168		11.13411		21.73622	
	511	1	2	10.05526		10.98821		20.96640	
	512	1	2	9.20407		11.63834		20.63108	
	513	1	2	9.11440		12.75656		20.59651	
	514	1	2	9.79279		13.49806		20.09689	
	515	1	2	9.92398		12.74115		19.27864	
	516	1	2	10.64654		11.90813		19.06975	
	517	1	2	11.31026		12.69506		19.51682	
	518	1	2	11.66235		11.84804		18.87011	
	519	1	2	11.69848		10.89180		19.45658	
	520	1	2	12.70885		11.37733		19.40141	
	521	1	2	12.00811		10.59262		19.01047	
	522	1	2	12.03550		10.74618		17.89902	
	523	1	2	13.04549		11.20956		17.74143	
	524	1	2	12.72469		10.13950		17.84966	
	525	1	2	12.81091		10.04351		16.73476	
	526	1	2	11.84344		9.51499		16.94524	
	527	1	2	12.19260		10.44062		17.47529	
	528	1	2	12.56455		10.75804		18.48550	
	529	1	2	11.88253		10.33224		19.26857	
	530	1	2	12.67132		9.70656		18.77260	
	531	1	2	12.66101		9.61951		17.65369	
	532	1	2	13.52032		9.51030		18.36734	
	533	1	2	13.99485		8.67015		18.94060	
	534	1	2	14.77709		7.88931		19.13562	
	535	1	2	13.72149		7.51271		19.07618	
	536	1	2	13.18050		8.34926		19.59306	
	537	1	2	12.46584		7.96776		20.36983	
	538	1	2	11.80624		7.46369		19.61451	
	539	1	2	11.04092		7.42564		20.43456	
	540	1	2	9.98705		7.18539		20.73670	
	541	1	2	10.80143		7.46703		21.45581	
	542	1	2	10.01820		8.13653		21.90073	
	543	1	2	9.32687		8.72368		0.56177	
	544	1	2	9.78272		9.73546		0.72960	
	545	1	2	8.88445		9.10286		0.50031	
	546	1	2	9.68519		9.87307		0.34148	
	547	1	2	10.75293		9.92615		21.99978	
	548	1	2	10.78961		9.21457		21.13263	
	549	1	2	11.11537		8.19825		21.47995	
	550	1	2	12.05292		7.59117		21.36996	
	551	1	2	12.28238		7.14290		20.36694	
	552	1	2	13.28080		6.67513		20.57671	
	553	1	2	13.32001		5.68170		20.05595	
	554	1	2	13.52407		4.92454		20.85890	
	555	1	2	14.58494		4.55826		20.85210	
	556	1	2	13.69685		3.90122		21.05019	
	557	1	2	13.40469		4.19909		20.00829	
	558	1	2	13.44538		4.12936		21.12772	
	559	1	2	13.19301		5.03807		20.51929	
	560	1	2	13.48366		4.32764		19.70048	
	561	1	2	14.16366		3.84846		18.94707	
	562	1	2	14.75444		4.42475		18.18646	
	563	1	2	14.37282		5.46488		18.00718	
	564	1	2	15.13637		5.76623		18.77257	
	565	1	2	14.09758		6.19111		18.76628	
	566	1	2	14.99998		6.72262		18.36279	
	567	1	2	14.23109		7.49179		18.08560	
	568	1	2	14.75762		7.66607		17.10988	
	569	1	2	15.18651		8.36182		16.34070	
	570	1	2	14.78739		9.40347		16.46446	
	571	1	2	15.71422		9.70669		15.90888	
	572	1	2	16.82956		9.81031		15.83862	
	573	1	2	17.01922		8.86021		16.40517	
	574	1	2	17.00584		8.03409		15.64558	
	575	1	2	17.98469		8.14220		16.18392	
	576	1	2	18.08909		9.23037		15.92967	
	577	1	2	19.00675		9.11780		15.29338	
	578	1	2	18.07833		9.59649		14.88285	
	579	1	2	18.13320		9.01865		15.84344	
	580	1	2	18.37237		9.38884		14.81126	
	581	1	2	18.04722		8.52913		15.45534	
	582	1	2	17.43152		9.21105		14.81070	
	583	1	2	17.91565		8.74600		13.91126	
	584	1	2	16.98537		9.18107		14.36396	
	585	1	2	16.67920		9.79367		13.47479	
	586	1	2	16.23422		10.60533		14.10949	
	587	1	2	15.83537		11.60583		14.42502	
	588	1	2	15.13514		11.98778		13.63544	
	589	1	2	15.21309		10.91716		13.96307	
	590	1	2	15.10404		10.81958		12.85031	
	591	1	2	14.32656		10.31780		12.21518	
	592	1	2	15.32565		9.82003		12.09814	
	593	1	2	15.84815		9.33349		12.96412	
	594	1	2	14.83887		9.78852		13.14841	
	595	1	2	14.74606		10.90351		13.23689	
	596	1	2	15.06571		11.49430		12.33777	
	597	1	2	14.28004		10.69688		12.25728	
	598	1	2	14.44583		10.80770		11.15280	
	599	1	2	13.99770		9.80389		10.92654	
	600	1	2	14.52447		9.50058		11.87002	
	601	1	2	13.41478		9.39848		12.00349	
	602	1	2	12.82598		8.89590		11.19086	
	603	1	2	11.82711		9.35005		10.95493	
	604	1	2	11.34819		9.90102		10.10246	
	605	1	2	10.96645		10.94819		9.97067	
	606	1	2	10.68715		11.21744		11.02383	
	607	1	2	11.24425		12.05832		11.51599	
	608	1	2	10.80318		13.08211		11.64622	
	609	1	2	10.74974		12.83225		12.73909	
	610	1	2	11.78181		13.02957		13.13347	
	611	1	2	12.69096		13.56350		13.51818	
	612	1	2	13.08880		12.68658		12.94165	
	613	1	2	13.20370		11.57379		12.85143	
	614	1	2	12.35103		12.11341		13.34276	
	615	1	2	12.31221		11.58227		14.33071	
	616	1	2	12.29788		12.68180		14.55540	
	617	1	2	11.85254		12.91411		13.55173	
	618	1	2	11.62354		13.94405		13.16905	
	619	1	2	11.83351		12.97977		12.63452	
	620	1	2	11.54695		11.99897		12.17023	
	621	1	2	11.71527		10.90774		11.96892	
	622	1	2	12.25614		10.37801		12.79747	
	623	1	2	11.58484		10.22942		11.91038	
	624	1	2	10.73927		10.69779		12.48072	
	625	1	2	10.21826		10.04229		13.22806	
	626	1	2	9.21383		9.56589		13.07374	
	627	1	2	10.23945		9.15193		12.88299	
	628	1	2	11.11858		9.84961		12.88759	
	629	1	2	10.59762		10.83163		12.73302	
	630	1	2	10.82106		11.91967		12.89388	
	631	1	2	10.10794		11.07748		12.68937	
	632	1	2	9.53905		11.10387		13.65649	
	633	1	2	8.48132		10.73100		13.61393	
	634	1	2	8.15465		11.26745		14.54407	
	635	1	2	7.45587		10.70191		15.21602	
	636	1	2	7.58606		11.51687		15.97665	
	637	1	2	6.55103		11.53258		16.41036	
	638	1	2	6.76315		12.53337		16.87195	
	639	1	2	6.90467		12.80292		15.79169	
	640	1	2	7.25820		12.43313		16.79065	
	641	1	2	6.89340		12.55333		17.84522	
	642	1	2	6.67058		11.73478		18.58005	
	643	1	2	7.51613		11.00606		18.46318	
	644	1	2	8.47523		10.65359		18.92745	
	645	1	2	7.97806		11.49882		19.47340	
	646	1	2	7.48973		12.50279		19.35838	
	647	1	2	7.74741		11.41492		19.45724	
	648	1	2	7.14036		11.88558		20.27555	
	649	1	2	8.12637		11.40637		20.03513	
	650	1	2	8.14108		10.29077		20.15704	
	651	1	2	7.48340		9.85024		20.95268	
	652	1	2	7.01461		10.27877		20.02734	
	653	1	2	6.64938		11.08452		20.71801	
	654	1	2	6.34087		11.70982		21.59748	
	655	1	2	7.27653		11.97407		0.15816	
	656	1	2	6.30253		11.55987		0.53154	
	657	1	2	5.55036		12.38196		0.39716	
	658	1	2	5.73968		11.46977		21.77128	
	659	1	2	5.15301		10.69865		21.20484	
	660	1	2	4.09939		11.01181		20.97798	
	661	1	2	4.91027		11.72104		20.66314	
	662	1	2	5.59775		11.45766		19.81600	
	663	1	2	6.43728		11.47778		20.56061	
	664	1	2	6.35825		11.42829		21.67907	
	665	1	2	5.39948		11.64198		0.22198	
	666	1	2	6.05088		11.94682		1.08361	
	667	1	2	6.25631		12.88048		0.49563	
	668	1	2	7.22745		13.31021		0.85879	
	669	1	2	6.21543		13.05345		0.44703	
	670	1	2	7.15221		12.98997		1.06190	
	671	1	2	8.17590		13.23577		0.67295	
	672	1	2	9.11467		12.73377		1.02840	
	673	1	2	8.14806		13.29359		1.13752	
	674	1	2	8.60578		13.06887		0.13771	
	675	1	2	8.94216		13.73550		0.97561	
	676	1	2	9.86618		14.35461		1.12577	
	677	1	2	9.87729		13.28520		1.46621	
	678	1	2	10.53415		14.08538		1.89969	
	679	1	2	11.12095		14.82703		2.50406	
	680	1	2	10.57626		15.42937		3.27876	
	681	1	2	11.45190		16.13041		3.24064	
	682	1	2	11.63554		15.37415		4.04934	
	683	1	2	12.57933		14.78037		3.92149	
	684	1	2	13.24983		14.08703		4.49538	
	685	1	2	13.12594		13.09043		3.99429	
	686	1	2	12.57966		12.99304		4.96986	
	687	1	2	11.73502		13.48151		5.52451	
	688	1	2	12.70318		12.94841		5.32926	
	689	1	2	12.05054		13.75728		4.90565	
	690	1	2	11.43557		13.27326		4.10117	
	691	1	2	12.24779		14.01017		4.33971	
	692	1	2	12.65853		13.33963		3.53888	
	693	1	2	11.79105		13.11034		2.86466	
	694	1	2	12.07337		14.14871		3.18362	
	695	1	2	11.92728		14.49928		2.12749	
	696	1	2	11.86957		13.38918		2.28242	
	697	1	2	12.42845		12.92630		3.13860	
	698	1	2	12.15184		13.54738		4.03156	
	699	1	2	11.17853		13.57864		3.47358	
	700	1	2	10.53235		14.48390		3.32327	
	701	1	2	11.07780		15.46114		3.40777	
	702	1	2	10.34571		15.20574		4.21922	
	703	1	2	11.18498		14.46526		4.30262	
	704	1	2	11.25370		13.35531		4.45407	
	705	1	2	10.24422		12.89356		4.28857	
	706	1	2	10.62007		11.83811		4.22222	
	707	1	2	11.29886		11.25814		3.54213	
	708	1	2	11.87208		10.98844		4.46859	
	709	1	2	11.77438		11.05270		3.35236	
	710	1	2	10.67017		11.22197		3.24410	
	711	1	2	10.03703		11.53831		4.11514	
	712	1	2	9.49170		12.34852		4.66816	
	713	1	2	9.81725		12.69378		5.68524	
	714	1	2	10.48087		13.30723		5.01971	
	715	1	2	9.68720		12.62397		5.42332	
	716	1	2	10.13139		13.21595		4.57957	
	717	1	2	10.06169		12.46024		3.75271	
	718	1	2	10.59719		13.28116		4.29950	
	719	1	2	9.88066		13.31223		5.16278	
	720	1	2	9.42877		14.32837		5.01147	
	721	1	2	9.29084		15.44052		4.95020	
	722	1	2	8.78315		14.45355		4.78353	
	723	1	2	8.54258		14.10923		3.74275	
	724	1	2	8.65560		13.40042		4.60556	
	725	1	2	9.17903		12.45220		4.31138	
	726	1	2	8.98307		11.84463		3.38828	
	727	1	2	8.59264		12.81082		3.80504	
	728	1	2	7.74438		12.08060		3.88791	
	729	1	2	8.66163		12.51585		3.40951	
	730	1	2	8.04551		12.82166		4.29638	
	731	1	2	8.35676		13.86855		4.03795	
	732	1	2	7.54754		13.48837		3.35951	
	733	1	2	7.35013		12.70143		2.58400	
	734	1	2	7.27863		12.84986		3.69419	
	735	1	2	8.10722		12.98967		4.43818	
	736	1	2	7.63057		12.09169		3.96271	
	737	1	2	7.17688		11.17506		3.50054	
	738	1	2	6.64492		10.21373		3.72967	
	739	1	2	5.56262		10.19343		3.43328	
	740	1	2	6.13111		10.57393		4.32304	
	741	1	2	6.22553		10.84692		3.23851	
	742	1	2	7.31997		10.98989		3.44202	
	743	1	2	6.59180		10.15968		3.24157	
	744	1	2	7.27421		10.88685		3.75653	
	745	1	2	6.27618		11.38840		3.86623	
	746	1	2	6.96210		12.07490		4.43005	
	747	1	2	6.50385		11.90326		3.42000	
	748	1	2	5.39725		11.72785		3.35440	
	749	1	2	6.09699		11.32680		2.57391	
	750	1	2	5.46970		12.19813		2.90092	
	751	1	2	6.44811		11.74045		2.59614	
	752	1	2	7.52370		12.03075		2.73204	
	753	1	2	8.14950		12.06282		3.66317	
	754	1	2	8.51988		12.06592		2.60371	
	755	1	2	9.12937		12.90097		2.16684	
	756	1	2	8.13750		13.08816		2.65755	
	757	1	2	7.76705		12.19280		3.22389	